 Gaussian 16, Revision C.01,
 Gaussian 16:  AS64L-G16RevC.01  3-Jul-2019

 ----------------------------------------------------------------------
 # opt=(calcfc,tight) freq 6-311+g(d,p) scrf=(smd,solvent=thf) nosymm s
 cf=(qc,fermi,xqc) geom=connectivity int=ultrafine m062x
 ----------------------------------------------------------------------

 -----------------------------
 4-cf3-ph-anion-opt-freq-thf-2
 -----------------------------
 Symbolic Z-matrix:
 Charge = -1 Multiplicity = 1

 SCF Done:  E(RM062X) =  -568.689301706     A.U. after   16 cycles
 SCF Done:  E(RM062X) =  -568.702966226     A.U. after   16 cycles
 SCF Done:  E(RM062X) =  -568.703527864     A.U. after   16 cycles
 SCF Done:  E(RM062X) =  -568.703429675     A.U. after   15 cycles
 SCF Done:  E(RM062X) =  -568.703581865     A.U. after   15 cycles
 SCF Done:  E(RM062X) =  -568.703589200     A.U. after   13 cycles
 SCF Done:  E(RM062X) =  -568.703595876     A.U. after   15 cycles
 SCF Done:  E(RM062X) =  -568.703585900     A.U. after   15 cycles
 SCF Done:  E(RM062X) =  -568.703590228     A.U. after   12 cycles
 SCF Done:  E(RM062X) =  -568.669404049     A.U. after   17 cycles
 SCF Done:  E(RM062X) =  -568.697921445     A.U. after   16 cycles
 SCF Done:  E(RM062X) =  -568.703534107     A.U. after   12 cycles
 SCF Done:  E(RM062X) =  -568.703610560     A.U. after    7 cycles
 SCF Done:  E(RM062X) =  -568.702978332     A.U. after   13 cycles
 SCF Done:  E(RM062X) =  -568.703613878     A.U. after   10 cycles
 SCF Done:  E(RM062X) =  -568.703614014     A.U. after   10 cycles
 SCF Done:  E(RM062X) =  -568.703614036     A.U. after    8 cycles
 SCF Done:  E(RM062X) =  -568.703614042     A.U. after    7 cycles
 SCF Done:  E(RM062X) =  -568.703614042     A.U. after    6 cycles
 Optimization completed.
    -- Stationary point found.
 Normal termination of Gaussian 16 at Tue May 27 04:35:05 2025.

 ----------------------------------------------------------------------
 #N Geom=AllCheck Guess=TCheck SCRF=Check GenChk RM062X/6-311+G(d,p) Fr
 eq
 ----------------------------------------------------------------------

 Structure from the checkpoint file:  "4-cf3-ph-anion-opt-freq-thf-2.chk"
 -----------------------------
 4-cf3-ph-anion-opt-freq-thf-2
 -----------------------------
 Charge = -1 Multiplicity = 1

                          Input orientation:
 ---------------------------------------------------------------------
 Center     Atomic      Atomic             Coordinates (Angstroms)
 Number     Number       Type             X           Y           Z
 ---------------------------------------------------------------------
      1          6           0        6.312029    6.967721    5.184484
      2          6           0        5.131554    6.194977    5.305775
      3          1           0        5.168821    5.242275    5.834731
      4          6           0        3.886208    6.560348    4.791728
      5          1           0        3.018565    5.919561    4.921261
      6          6           0        3.761083    7.769006    4.109297
      7          6           0        4.878868    8.585114    3.945881
      8          1           0        4.786986    9.527488    3.413093
      9          6           0        6.103313    8.176843    4.477230
     10          1           0        6.941629    8.856662    4.322576
     11          6           0        2.460785    8.152974    3.495458
     12          9           0        2.282569    9.487744    3.429581
     13          9           0        1.396777    7.659074    4.159294
     14          9           0        2.327261    7.709552    2.220010
 ---------------------------------------------------------------------

 SCF Done:  E(RM062X) =  -568.703614042     A.U. after    1 cycles

 Alpha  occ. eigenvalues --  -25.26131 -25.26109 -25.25624 -10.78082 -10.53173
 Alpha  occ. eigenvalues --  -10.51937 -10.51933 -10.49874 -10.49870 -10.45951
 Alpha  occ. eigenvalues --   -1.45070  -1.35911  -1.35330  -0.93545  -0.84264
 Alpha  occ. eigenvalues --   -0.80825  -0.76955  -0.68391  -0.67939  -0.67466
 Alpha  occ. eigenvalues --   -0.64036  -0.61187  -0.55994  -0.55944  -0.51774
 Alpha  occ. eigenvalues --   -0.51543  -0.51413  -0.49749  -0.48524  -0.46754
 Alpha  occ. eigenvalues --   -0.44941  -0.41854  -0.40672  -0.35093  -0.27830
 Alpha  occ. eigenvalues --   -0.26782  -0.20398
 Alpha virt. eigenvalues --    0.03334   0.04111   0.04694   0.04951   0.05438
 Alpha virt. eigenvalues --    0.06416   0.07057   0.08100   0.08989   0.10033
 Alpha virt. eigenvalues --    0.10527   0.10676   0.11367   0.13295   0.15036

 Mulliken charges:
               1
     1  C   -0.892227
     2  C   -0.144023
     3  H    0.155171
     4  C   -0.072504
     5  H    0.179743
     6  C   -0.237040
     7  C   -0.029915
     8  H    0.179978
     9  C   -0.139392
    10  H    0.155315
    11  C    0.244902
    12  F   -0.146326
    13  F   -0.148624
    14  F   -0.105057
 Sum of Mulliken charges =  -1.00000

 Dipole moment (field-independent basis, Debye):
    X=            -26.8520    Y=            -34.4984    Z=            -23.2684  Tot=             49.5237
 Quadrupole moment (field-independent basis, Debye-Ang):
   XX=           -232.0219   YY=           -308.6890   ZZ=           -180.2066
   XY=           -184.6182   XZ=           -139.7032   YZ=           -166.7725

  Exact polarizability:     149.311      -0.942     122.973      18.006     -22.668      98.662
 Approx polarizability:     128.576       2.922     115.340      11.262     -19.635      91.217

                      1                      2                      3
                      A                      A                      A
 Frequencies --     32.1601               127.5832               201.4366
 Red. masses --      6.0492                 9.7319                 7.5795
 Frc consts  --      0.0037                 0.0933                 0.1812
 IR Inten    --      0.2008                18.0319                 8.7406

                      4                      5                      6
                      A                      A                      A
 Frequencies --    323.6444               346.7187               367.2075
 Red. masses --      7.6053                10.0055                 2.6961
 Frc consts  --      0.4694                 0.7087                 0.2142
 IR Inten    --     20.5300                 2.9273                 0.2581

                      7                      8                      9
                      A                      A                      A
 Frequencies --    405.9113               483.8649               581.7386
 Red. masses --      9.1928                 7.1506                13.4995
 Frc consts  --      0.8924                 0.9864                 2.6917
 IR Inten    --      5.0165                10.7533                 0.0060

                     10                     11                     12
                      A                      A                      A
 Frequencies --    603.8462               641.3032               653.2855
 Red. masses --      6.4848                 7.1190                 9.2347
 Frc consts  --      1.3931                 1.7250                 2.3221
 IR Inten    --     19.3218                 2.0305                45.0720

                     13                     14                     15
                      A                      A                      A
 Frequencies --    726.3263               780.7176               830.6593
 Red. masses --      2.6885                11.2083                 1.6365
 Frc consts  --      0.8356                 4.0251                 0.6653
 IR Inten    --     12.2411                 0.1563                62.3712

                     16                     17                     18
                      A                      A                      A
 Frequencies --    879.1786               989.7534               991.7810
 Red. masses --      1.2526                 3.9592                 1.5379
 Frc consts  --      0.5704                 2.2851                 0.8913
 IR Inten    --      0.1792                 4.9299                11.8969

                     19                     20                     21
                      A                      A                      A
 Frequencies --   1007.5149              1034.4079              1093.8335
 Red. masses --      1.4314                 4.0801                 3.0672
 Frc consts  --      0.8561                 2.5722                 2.1622
 IR Inten    --      0.0492                99.5885               167.5762

                     22                     23                     24
                      A                      A                      A
 Frequencies --   1102.4297              1117.0895              1162.4111
 Red. masses --      1.8274                 8.0092                 5.2724
 Frc consts  --      1.3085                 5.8887                 4.1974
 IR Inten    --     52.0876               359.0714               288.2843

                     25                     26                     27
                      A                      A                      A
 Frequencies --   1206.6634              1262.8702              1340.3466
 Red. masses --      1.1714                 6.9579                 1.3323
 Frc consts  --      1.0049                 6.5380                 1.4102
 IR Inten    --     28.9027                59.6738                10.9921

                     28                     29                     30
                      A                      A                      A
 Frequencies --   1355.0694              1401.2409              1500.1661
 Red. masses --      4.3637                 2.3722                 2.4175
 Frc consts  --      4.7210                 2.7443                 3.2055
 IR Inten    --    594.4284                18.8894                10.4478

                     31                     32                     33
                      A                      A                      A
 Frequencies --   1602.3791              1626.4229              3116.4495
 Red. masses --      6.7100                 5.1860                 1.0870
 Frc consts  --     10.1509                 8.0826                 6.2199
 IR Inten    --      0.0138                72.0637                76.6263

                     34                     35                     36
                      A                      A                      A
 Frequencies --   3119.4194              3183.2501              3187.4417
 Red. masses --      1.0871                 1.0924                 1.0923
 Frc consts  --      6.2325                 6.5220                 6.5388
 IR Inten    --     47.9041                22.9623                22.0667

 - Thermochemistry -
 -------------------
 Temperature   298.150 Kelvin.  Pressure   1.00000 Atm.
 Atom     1 has atomic number  6 and mass  12.00000

 Molecular mass:   145.02651 amu.
 Principal axes and moments of inertia in atomic units:
                           1         2         3
     Eigenvalues --   624.665091885.681122196.86729
           X            0.87977   0.41312  -0.23523
           Y           -0.26871   0.84031   0.47082
           Z            0.39217  -0.35100   0.85029
 This molecule is an asymmetric top.
 Rotational symmetry number  1.
 Warning -- assumption of classical behavior for rotation
           may cause significant error
 Rotational temperatures (Kelvin)      0.13866     0.04593     0.03943
 Rotational constants (GHZ):           2.88913     0.95708     0.82151
 Zero-point vibrational energy     241565.0 (Joules/Mol)
                                   57.73543 (Kcal/Mol)
 Warning -- explicit consideration of  10 degrees of freedom as
           vibrations may cause significant error
 Vibrational temperatures:     46.27   183.56   289.82   465.65   498.85
          (Kelvin)            528.33   584.02   696.17   836.99   868.80
                              922.69   939.93  1045.02  1123.28  1195.13
                             1264.94  1424.03  1426.95  1449.59  1488.28
                             1573.78  1586.15  1607.24  1672.45  1736.12
                             1816.99  1928.46  1949.64  2016.07  2158.40
                             2305.47  2340.06  4483.88  4488.15  4579.99
                             4586.02

 Zero-point correction=                           0.092007 (Hartree/Particle)
 Thermal correction to Energy=                    0.099812
 Thermal correction to Enthalpy=                  0.100756
 Thermal correction to Gibbs Free Energy=         0.058263
 Sum of electronic and zero-point Energies=           -568.611607
 Sum of electronic and thermal Energies=              -568.603802
 Sum of electronic and thermal Enthalpies=            -568.602858
 Sum of electronic and thermal Free Energies=         -568.645351

                     E (Thermal)             CV                S
                      KCal/Mol        Cal/Mol-Kelvin    Cal/Mol-Kelvin
 Total                   62.633             29.202             89.433
 Electronic               0.000              0.000              0.000
 Translational            0.889              2.981             40.826
 Rotational               0.889              2.981             29.338
 Vibrational             60.855             23.240             19.269
 Vibration     1          0.594              1.983              5.692
 Vibration     2          0.611              1.926              2.982
 Vibration     3          0.638              1.838              2.120
 Vibration     4          0.708              1.628              1.292
 Vibration     5          0.725              1.582              1.181
 Vibration     6          0.740              1.540              1.091
 Vibration     7          0.771              1.457              0.941
 Vibration     8          0.840              1.286              0.700
 Vibration     9          0.938              1.071              0.482
 Vibration    10          0.962              1.024              0.443

 Optimization completed.
    -- Stationary point found.
 Normal termination of Gaussian 16 at Tue May 27 04:36:13 2025.
