 Gaussian 16, Revision C.01,
 Gaussian 16:  AS64L-G16RevC.01  3-Jul-2019

 ----------------------------------------------------------------------
 # opt=(calcfc,tight) freq 6-311+g(d,p) scrf=(smd,solvent=thf) nosymm s
 cf=(qc,fermi,xqc) geom=connectivity int=ultrafine m062x
 ----------------------------------------------------------------------

 -----------------------
 4-cf3-ph-opt-freq-thf-2
 -----------------------
 Symbolic Z-matrix:
 Charge =  0 Multiplicity = 2

 SCF Done:  E(UM062X) =  -568.568181671     A.U. after   16 cycles
 SCF Done:  E(UM062X) =  -568.572896247     A.U. after   14 cycles
 SCF Done:  E(UM062X) =  -568.572916481     A.U. after   11 cycles
 SCF Done:  E(UM062X) =  -568.572916561     A.U. after    8 cycles
 SCF Done:  E(UM062X) =  -568.572916562     A.U. after    5 cycles
 Optimization completed.
    -- Stationary point found.
 Normal termination of Gaussian 16 at Tue May  6 17:34:07 2025.

 ----------------------------------------------------------------------
 #N Geom=AllCheck Guess=TCheck SCRF=Check GenChk UM062X/6-311+G(d,p) Fr
 eq
 ----------------------------------------------------------------------

 Structure from the checkpoint file:  "4-cf3-ph-opt-freq-thf-2.chk"
 -----------------------
 4-cf3-ph-opt-freq-thf-2
 -----------------------
 Charge =  0 Multiplicity = 2

                          Input orientation:
 ---------------------------------------------------------------------
 Center     Atomic      Atomic             Coordinates (Angstroms)
 Number     Number       Type             X           Y           Z
 ---------------------------------------------------------------------
      1          6           0        6.160039    7.019905    5.140458
      2          6           0        5.109329    6.148369    5.298167
      3          1           0        5.211473    5.202190    5.816474
      4          6           0        3.884635    6.539791    4.757146
      5          1           0        3.016764    5.896279    4.849995
      6          6           0        3.784528    7.766573    4.101614
      7          6           0        4.881030    8.613576    3.963586
      8          1           0        4.781332    9.562041    3.449056
      9          6           0        6.113029    8.233839    4.501250
     10          1           0        6.979685    8.878287    4.411827
     11          6           0        2.469853    8.146064    3.489991
     12          9           0        2.360532    9.465476    3.276130
     13          9           0        1.428045    7.786897    4.258978
     14          9           0        2.276174    7.550051    2.295728
 ---------------------------------------------------------------------

 SCF Done:  E(UM062X) =  -568.572916562     A.U. after    1 cycles

 Alpha  occ. eigenvalues --  -25.28407 -25.28241 -25.27939 -10.80741 -10.58333
 Alpha  occ. eigenvalues --  -10.57800 -10.57101 -10.57096 -10.56402 -10.56374
 Alpha  occ. eigenvalues --   -1.47547  -1.38277  -1.37799  -0.99609  -0.89988
 Alpha  occ. eigenvalues --   -0.87081  -0.81120  -0.72609  -0.72374  -0.69888
 Alpha  occ. eigenvalues --   -0.68960  -0.66180  -0.58350  -0.58225  -0.56502
 Alpha  occ. eigenvalues --   -0.55015  -0.53994  -0.53692  -0.53308  -0.51915
 Alpha  occ. eigenvalues --   -0.50751  -0.46694  -0.46474  -0.43347  -0.33942
 Alpha  occ. eigenvalues --   -0.32971  -0.31756
 Alpha virt. eigenvalues --   -0.00743  -0.00037   0.01709   0.03186   0.03563
 Alpha virt. eigenvalues --    0.04834   0.05363   0.05696   0.06878   0.08227
 Alpha virt. eigenvalues --    0.08368   0.08463   0.09268   0.11466   0.12482

  Beta  occ. eigenvalues --  -25.28408 -25.28244 -25.27945 -10.80736 -10.57834
  Beta  occ. eigenvalues --  -10.57348 -10.57018 -10.57013 -10.56408 -10.56381
  Beta  occ. eigenvalues --   -1.47554  -1.38282  -1.37813  -0.98960  -0.89062
  Beta  occ. eigenvalues --   -0.86685  -0.80452  -0.72299  -0.71264  -0.69911
  Beta  occ. eigenvalues --   -0.68747  -0.65841  -0.58276  -0.58201  -0.55192
  Beta  occ. eigenvalues --   -0.54597  -0.53871  -0.53023  -0.52782  -0.51910
  Beta  occ. eigenvalues --   -0.50253  -0.45983  -0.45541  -0.42814  -0.33041
  Beta  occ. eigenvalues --   -0.32561
  Beta virt. eigenvalues --   -0.05838  -0.00096   0.00454   0.01691   0.03257
  Beta virt. eigenvalues --    0.03745   0.04812   0.05382   0.06314   0.07124
  Beta virt. eigenvalues --    0.08136   0.08514   0.09024   0.09324   0.11733

 Mulliken charges and spin densities:
               1          2
     1  C    0.335267   0.832179
     2  C   -0.413076   0.061336
     3  H    0.213956   0.017274
     4  C    0.285178   0.001317
     5  H    0.214641   0.003737
     6  C   -0.336942  -0.005383
     7  C   -0.196494   0.011543
     8  H    0.212175   0.003742
     9  C   -0.439533   0.068482
    10  H    0.213398   0.017474
    11  C    0.250392  -0.010856
    12  F   -0.141939  -0.000175
    13  F   -0.116327  -0.000347
    14  F   -0.080696  -0.000323
 Sum of Mulliken charges =   0.00000   1.00000

 Dipole moment (field-independent basis, Debye):
    X=              2.3111    Y=             -0.6194    Z=              1.0894  Tot=              2.6290
 Quadrupole moment (field-independent basis, Debye-Ang):
   XX=            -40.0449   YY=            -60.4530   ZZ=            -49.9345
   XY=             19.6657   XZ=             12.0162   YZ=              2.2781

  Exact polarizability:     114.245       5.730     106.100      11.318     -20.382      77.301
 Approx polarizability:     108.516       6.395     103.878       9.102     -18.960      75.908

                      1                      2                      3
                      A                      A                      A
 Frequencies --     26.8044               137.1495               205.6014
 Red. masses --      6.2096                 9.1784                 7.4998
 Frc consts  --      0.0026                 0.1017                 0.1868
 IR Inten    --      0.1032                 0.5286                 1.9677

                      4                      5                      6
                      A                      A                      A
 Frequencies --    335.4109               351.0762               396.4687
 Red. masses --      7.9033                 9.0282                 3.4650
 Frc consts  --      0.5239                 0.6556                 0.3209
 IR Inten    --      6.0849                 4.4227                 1.0312

                      7                      8                      9
                      A                      A                      A
 Frequencies --    406.2889               488.2945               583.6248
 Red. masses --      5.8877                 5.5253                12.9755
 Frc consts  --      0.5726                 0.7762                 2.6040
 IR Inten    --      2.2379                 8.8295                 0.4114

                     10                     11                     12
                      A                      A                      A
 Frequencies --    589.5406               608.9374               660.1606
 Red. masses --      5.5651                 7.0377                 8.8097
 Frc consts  --      1.1396                 1.5375                 2.2621
 IR Inten    --     23.7626                 1.9111                41.0012

                     13                     14                     15
                      A                      A                      A
 Frequencies --    722.7911               782.5399               822.7017
 Red. masses --      3.1621                10.3962                 1.5987
 Frc consts  --      0.9733                 3.7509                 0.6375
 IR Inten    --     20.9425                 0.8404               110.0500

                     16                     17                     18
                      A                      A                      A
 Frequencies --    837.7865               976.3622               994.7453
 Red. masses --      1.2532                 1.3597                 5.7051
 Frc consts  --      0.5183                 0.7637                 3.3261
 IR Inten    --      2.1078                 7.3139                14.1620

                     19                     20                     21
                      A                      A                      A
 Frequencies --    996.1027              1059.2153              1085.0900
 Red. masses --      1.4593                 2.4470                 3.9517
 Frc consts  --      0.8531                 1.6175                 2.7414
 IR Inten    --      1.3515                37.6150               114.3141

                     22                     23                     24
                      A                      A                      A
 Frequencies --   1110.3927              1147.3526              1180.9726
 Red. masses --      1.4230                11.9052                 1.1281
 Frc consts  --      1.0337                 9.2338                 0.9270
 IR Inten    --     46.0679               416.7651                 1.2062

                     25                     26                     27
                      A                      A                      A
 Frequencies --   1183.6583              1301.8449              1328.7647
 Red. masses --      8.1074                 1.5636                 3.0209
 Frc consts  --      6.6925                 1.5614                 3.1425
 IR Inten    --    335.9537                 0.9966                 5.2722

                     28                     29                     30
                      A                      A                      A
 Frequencies --   1353.7176              1418.0471              1501.0196
 Red. masses --      5.1880                 3.5952                 2.7450
 Frc consts  --      5.6016                 4.2595                 3.6438
 IR Inten    --    490.1629                36.0668                 0.0708

                     31                     32                     33
                      A                      A                      A
 Frequencies --   1636.8077              1663.0204              3209.5946
 Red. masses --      5.5586                 8.0163                 1.0885
 Frc consts  --      8.7743                13.0622                 6.6064
 IR Inten    --     38.0027                 9.0887                 0.2234

                     34                     35                     36
                      A                      A                      A
 Frequencies --   3213.0424              3221.9416              3226.0342
 Red. masses --      1.0886                 1.0962                 1.0963
 Frc consts  --      6.6213                 6.7047                 6.7226
 IR Inten    --      0.2928                 0.1781                 0.1655

 - Thermochemistry -
 -------------------
 Temperature   298.150 Kelvin.  Pressure   1.00000 Atm.
 Atom     1 has atomic number  6 and mass  12.00000

 Molecular mass:   145.02651 amu.
 Principal axes and moments of inertia in atomic units:
                           1         2         3
     Eigenvalues --   636.928331824.918982147.91248
           X            0.87965   0.40394  -0.25108
           Y           -0.26402   0.85382   0.44864
           Z            0.39560  -0.32836   0.85772
 This molecule is an asymmetric top.
 Rotational symmetry number  1.
 Warning -- assumption of classical behavior for rotation
           may cause significant error
 Rotational temperatures (Kelvin)      0.13599     0.04746     0.04032
 Rotational constants (GHZ):           2.83351     0.98894     0.84023
 Zero-point vibrational energy     243816.3 (Joules/Mol)
                                   58.27350 (Kcal/Mol)
 Warning -- explicit consideration of  11 degrees of freedom as
           vibrations may cause significant error
 Vibrational temperatures:     38.57   197.33   295.81   482.58   505.12
          (Kelvin)            570.43   584.56   702.55   839.71   848.22
                              876.13   949.82  1039.94  1125.90  1183.68
                             1205.39  1404.77  1431.22  1433.17  1523.97
                             1561.20  1597.61  1650.78  1699.16  1703.02
                             1873.06  1911.80  1947.70  2040.25  2159.63
                             2355.00  2392.72  4617.89  4622.85  4635.66
                             4641.54

 Zero-point correction=                           0.092865 (Hartree/Particle)
 Thermal correction to Energy=                    0.100633
 Thermal correction to Enthalpy=                  0.101577
 Thermal correction to Gibbs Free Energy=         0.058416
 Sum of electronic and zero-point Energies=           -568.480052
 Sum of electronic and thermal Energies=              -568.472284
 Sum of electronic and thermal Enthalpies=            -568.471340
 Sum of electronic and thermal Free Energies=         -568.514500

                     E (Thermal)             CV                S
                      KCal/Mol        Cal/Mol-Kelvin    Cal/Mol-Kelvin
 Total                   63.148             29.187             90.840
 Electronic               0.000              0.000              1.377
 Translational            0.889              2.981             40.826
 Rotational               0.889              2.981             29.303
 Vibrational             61.371             23.225             19.333
 Vibration     1          0.593              1.984              6.053
 Vibration     2          0.614              1.916              2.843
 Vibration     3          0.640              1.832              2.082
 Vibration     4          0.717              1.605              1.234
 Vibration     5          0.728              1.573              1.161
 Vibration     6          0.763              1.478              0.976
 Vibration     7          0.771              1.457              0.940
 Vibration     8          0.844              1.276              0.688
 Vibration     9          0.941              1.067              0.479
 Vibration    10          0.947              1.054              0.468
 Vibration    11          0.968              1.013              0.435

 Optimization completed.
    -- Stationary point found.
 Normal termination of Gaussian 16 at Tue May  6 17:35:57 2025.
