 Gaussian 16, Revision C.01,
 Gaussian 16:  AS64L-G16RevC.01  3-Jul-2019

 ----------------------------------------------------------------------
 # opt=(calcfc,tight) freq 6-311+g(d,p) nosymm scf=(qc,fermi,xqc) geom=
 connectivity int=ultrafine m062x
 ----------------------------------------------------------------------

 ---------------------
 4-no2-phboh2-opt-freq
 ---------------------
 Symbolic Z-matrix:
 Charge =  0 Multiplicity = 1

 SCF Done:  E(RM062X) =  -612.603940535     A.U. after   18 cycles
 SCF Done:  E(RM062X) =  -612.661529961     A.U. after   19 cycles
 SCF Done:  E(RM062X) =  -612.694665705     A.U. after   17 cycles
 SCF Done:  E(RM062X) =  -612.699870648     A.U. after   18 cycles
 SCF Done:  E(RM062X) =  -612.688957567     A.U. after   19 cycles
 SCF Done:  E(RM062X) =  -612.706049589     A.U. after   17 cycles
 SCF Done:  E(RM062X) =  -612.710737555     A.U. after   16 cycles
 SCF Done:  E(RM062X) =  -612.708274141     A.U. after   17 cycles
 SCF Done:  E(RM062X) =  -612.712998827     A.U. after   16 cycles
 SCF Done:  E(RM062X) =  -612.713430254     A.U. after   15 cycles
 SCF Done:  E(RM062X) =  -612.713915767     A.U. after   12 cycles
 SCF Done:  E(RM062X) =  -612.713916222     A.U. after   11 cycles
 SCF Done:  E(RM062X) =  -612.713899428     A.U. after   14 cycles
 SCF Done:  E(RM062X) =  -612.713917359     A.U. after   14 cycles
 SCF Done:  E(RM062X) =  -612.713917555     A.U. after   10 cycles
 SCF Done:  E(RM062X) =  -612.713917596     A.U. after   11 cycles
 SCF Done:  E(RM062X) =  -612.713917598     A.U. after    9 cycles
 SCF Done:  E(RM062X) =  -612.713917599     A.U. after    7 cycles
 SCF Done:  E(RM062X) =  -612.713917599     A.U. after    5 cycles
 Optimization completed.
    -- Stationary point found.
 Normal termination of Gaussian 16 at Thu Apr 24 11:08:52 2025.

 ----------------------------------------------------------------------
 #N Geom=AllCheck Guess=TCheck SCRF=Check GenChk RM062X/6-311+G(d,p) Fr
 eq
 ----------------------------------------------------------------------

 Structure from the checkpoint file:  "4-no2-phboh2-opt-freq.chk"
 ---------------------
 4-no2-phboh2-opt-freq
 ---------------------
 Charge =  0 Multiplicity = 1

                          Input orientation:
 ---------------------------------------------------------------------
 Center     Atomic      Atomic             Coordinates (Angstroms)
 Number     Number       Type             X           Y           Z
 ---------------------------------------------------------------------
      1          8           0        8.699951    7.385038    5.368887
      2          1           0        9.530791    7.121139    5.775140
      3          6           0        6.234133    6.951278    5.182942
      4          5           0        7.656583    6.608163    5.762927
      5          8           0        7.901787    5.587278    6.635004
      6          1           0        7.129987    5.093008    6.915188
      7          6           0        5.112699    6.147668    5.414815
      8          1           0        5.193278    5.238884    6.003495
      9          6           0        3.866353    6.474633    4.897339
     10          1           0        2.992052    5.861708    5.068195
     11          6           0        3.761662    7.628095    4.136581
     12          6           0        4.843345    8.454782    3.874574
     13          1           0        4.706716    9.342893    3.272740
     14          6           0        6.078318    8.103209    4.402321
     15          1           0        6.942201    8.728715    4.211317
     16          7           0        2.437738    7.990338    3.579631
     17          8           0        1.509690    7.248854    3.817505
     18          8           0        2.366904    9.004628    2.922052
 ---------------------------------------------------------------------

 SCF Done:  E(RM062X) =  -612.713917599     A.U. after    1 cycles

 Alpha  occ. eigenvalues --  -19.67078 -19.67056 -19.65854 -19.65037 -15.01060
 Alpha  occ. eigenvalues --  -10.62224 -10.58352 -10.58265 -10.58075 -10.57474
 Alpha  occ. eigenvalues --  -10.56341  -7.10660  -1.38657  -1.19920  -1.18895
 Alpha  occ. eigenvalues --   -1.15229  -1.01010  -0.91799  -0.88238  -0.80635
 Alpha  occ. eigenvalues --   -0.73050  -0.69924  -0.67469  -0.66702  -0.64808
 Alpha  occ. eigenvalues --   -0.64019  -0.61483  -0.58456  -0.55279  -0.54593
 Alpha  occ. eigenvalues --   -0.52624  -0.50430  -0.50118  -0.47578  -0.46986
 Alpha  occ. eigenvalues --   -0.43722  -0.42478  -0.41858  -0.39898  -0.39234
 Alpha  occ. eigenvalues --   -0.39079  -0.34810  -0.34254
 Alpha virt. eigenvalues --   -0.06949  -0.01557  -0.01183   0.00576   0.00848
 Alpha virt. eigenvalues --    0.01394   0.02164   0.03409   0.03757   0.04515
 Alpha virt. eigenvalues --    0.07004   0.07160   0.07862   0.08249   0.09341

 Mulliken charges:
               1
     1  O   -0.349243
     2  H    0.310649
     3  C   -0.136336
     4  B    0.484486
     5  O   -0.345941
     6  H    0.257465
     7  C   -0.387970
     8  H    0.134883
     9  C    0.172665
    10  H    0.194081
    11  C   -0.206348
    12  C    0.206963
    13  H    0.195958
    14  C   -0.515344
    15  H    0.193622
    16  N   -0.189116
    17  O   -0.012819
    18  O   -0.007653
 Sum of Mulliken charges =   0.00000

 Dipole moment (field-independent basis, Debye):
    X=              3.6435    Y=             -2.0106    Z=              2.4545  Tot=              4.8314
 Quadrupole moment (field-independent basis, Debye-Ang):
   XX=            -42.6673   YY=            -95.0306   ZZ=            -46.3565
   XY=             20.7033   XZ=             24.7119   YZ=              6.5099

  Exact polarizability:     132.277      -0.272      95.638      19.108     -26.988      77.354
 Approx polarizability:     152.188      11.163     134.869      12.282     -37.878     100.290

                      1                      2                      3
                      A                      A                      A
 Frequencies --     28.1772                45.6713                75.2077
 Red. masses --      6.4210                 6.4200                 7.8326
 Frc consts  --      0.0030                 0.0079                 0.0261
 IR Inten    --      1.7474                 0.2695                 1.7648

                      4                      5                      6
                      A                      A                      A
 Frequencies --    136.4342               227.0695               266.7829
 Red. masses --      7.1727                 6.4799                 6.9899
 Frc consts  --      0.0787                 0.1969                 0.2931
 IR Inten    --      3.0677                 2.6274                 2.5419

                      7                      8                      9
                      A                      A                      A
 Frequencies --    275.6353               405.7894               419.9654
 Red. masses --      8.6284                 2.6726                 4.7730
 Frc consts  --      0.3862                 0.2593                 0.4960
 IR Inten    --      2.2416                 5.9807                 4.2946

                     10                     11                     12
                      A                      A                      A
 Frequencies --    437.6815               448.2090               482.4887
 Red. masses --      3.7776                 5.2224                 1.1568
 Frc consts  --      0.4264                 0.6181                 0.1587
 IR Inten    --      2.1149                29.4013               155.7181

                     13                     14                     15
                      A                      A                      A
 Frequencies --    542.9279               560.9461               588.9745
 Red. masses --      7.0288                 1.3925                 4.6313
 Frc consts  --      1.2207                 0.2582                 0.9466
 IR Inten    --      1.6741                 9.9445                21.2483

                     16                     17                     18
                      A                      A                      A
 Frequencies --    640.5008               646.9492               713.3094
 Red. masses --      6.4969                 3.3923                 3.8068
 Frc consts  --      1.5704                 0.8365                 1.1412
 IR Inten    --      4.8754                73.3230                78.9936

                     19                     20                     21
                      A                      A                      A
 Frequencies --    738.8140               762.0299               863.2125
 Red. masses --      8.3833                 6.6190                 1.4338
 Frc consts  --      2.6961                 2.2646                 0.6295
 IR Inten    --      5.0666                17.3505                13.3325

                     22                     23                     24
                      A                      A                      A
 Frequencies --    885.9897               897.3801               983.5152
 Red. masses --      1.4116                10.8206                 1.3738
 Frc consts  --      0.6528                 5.1340                 0.7830
 IR Inten    --     15.6038                49.2720               125.5180

                     25                     26                     27
                      A                      A                      A
 Frequencies --    995.2277              1026.6664              1030.9249
 Red. masses --      1.2876                 1.3685                 1.9131
 Frc consts  --      0.7514                 0.8499                 1.1980
 IR Inten    --      2.4340                 7.0290               111.2707

                     28                     29                     30
                      A                      A                      A
 Frequencies --   1039.3771              1130.5045              1134.9618
 Red. masses --      2.1337                 1.7962                 1.7658
 Frc consts  --      1.3581                 1.3525                 1.3402
 IR Inten    --     32.7693                 7.0861                47.0140

                     31                     32                     33
                      A                      A                      A
 Frequencies --   1143.0043              1217.8310              1314.6611
 Red. masses --      2.8029                 1.2699                 2.6011
 Frc consts  --      2.1575                 1.1097                 2.6487
 IR Inten    --     30.3113                 1.7178                21.7915

                     34                     35                     36
                      A                      A                      A
 Frequencies --   1345.0382              1386.7699              1414.1053
 Red. masses --      1.9817                 4.4122                 3.8017
 Frc consts  --      2.1123                 4.9994                 4.4791
 IR Inten    --     32.6787               613.9623                87.5379

                     37                     38                     39
                      A                      A                      A
 Frequencies --   1459.1449              1468.2333              1543.3343
 Red. masses --      5.6434                13.7439                 2.5699
 Frc consts  --      7.0793                17.4562                 3.6065
 IR Inten    --    222.7355               188.1811                 8.7900

                     40                     41                     42
                      A                      A                      A
 Frequencies --   1649.4249              1675.1724              1717.4305
 Red. masses --      8.5079                 6.1568                11.8250
 Frc consts  --     13.6376                10.1794                20.5499
 IR Inten    --    132.5877                12.6195               241.8030

                     43                     44                     45
                      A                      A                      A
 Frequencies --   3183.9477              3219.3150              3250.0874
 Red. masses --      1.0900                 1.0910                 1.0938
 Frc consts  --      6.5104                 6.6618                 6.8071
 IR Inten    --     14.6372                 0.9111                 4.2789

                     46                     47                     48
                      A                      A                      A
 Frequencies --   3250.3163              3905.7509              3949.3919
 Red. masses --      1.0942                 1.0653                 1.0662
 Frc consts  --      6.8109                 9.5753                 9.7983
 IR Inten    --      3.8136               128.2368                60.5210

 - Thermochemistry -
 -------------------
 Temperature   298.150 Kelvin.  Pressure   1.00000 Atm.
 Atom     1 has atomic number  8 and mass  15.99491

 Molecular mass:   167.03899 amu.
 Principal axes and moments of inertia in atomic units:
                           1         2         3
     Eigenvalues --   622.970844002.573894622.22894
           X            0.89677   0.39780  -0.19382
           Y           -0.23559   0.79998   0.55184
           Z            0.37457  -0.44921   0.81111
 This molecule is an asymmetric top.
 Rotational symmetry number  1.
 Warning -- assumption of classical behavior for rotation
           may cause significant error
 Rotational temperatures (Kelvin)      0.13903     0.02164     0.01874
 Rotational constants (GHZ):           2.89699     0.45090     0.39045
 Zero-point vibrational energy     338090.3 (Joules/Mol)
                                   80.80552 (Kcal/Mol)
 Warning -- explicit consideration of  15 degrees of freedom as
           vibrations may cause significant error
 Vibrational temperatures:     40.54    65.71   108.21   196.30   326.70
          (Kelvin)            383.84   396.58   583.84   604.24   629.73
                              644.87   694.19   781.15   807.08   847.40
                              921.54   930.82  1026.29  1062.99  1096.39
                             1241.97  1274.74  1291.13  1415.06  1431.91
                             1477.14  1483.27  1495.43  1626.54  1632.96
                             1644.53  1752.19  1891.50  1935.21  1995.25
                             2034.58  2099.38  2112.46  2220.51  2373.15
                             2410.20  2471.00  4580.99  4631.88  4676.15
                             4676.48  5619.50  5682.29

 Zero-point correction=                           0.128772 (Hartree/Particle)
 Thermal correction to Energy=                    0.139185
 Thermal correction to Enthalpy=                  0.140129
 Thermal correction to Gibbs Free Energy=         0.090966
 Sum of electronic and zero-point Energies=           -612.585146
 Sum of electronic and thermal Energies=              -612.574733
 Sum of electronic and thermal Enthalpies=            -612.573788
 Sum of electronic and thermal Free Energies=         -612.622951

                     E (Thermal)             CV                S
                      KCal/Mol        Cal/Mol-Kelvin    Cal/Mol-Kelvin
 Total                   87.340             38.631            103.472
 Electronic               0.000              0.000              0.000
 Translational            0.889              2.981             41.247
 Rotational               0.889              2.981             30.822
 Vibrational             85.562             32.669             31.402
 Vibration     1          0.593              1.984              5.954
 Vibration     2          0.595              1.979              4.997
 Vibration     3          0.599              1.966              4.012
 Vibration     4          0.614              1.917              2.853
 Vibration     5          0.651              1.800              1.902
 Vibration     6          0.672              1.734              1.617
 Vibration     7          0.677              1.718              1.561
 Vibration     8          0.771              1.458              0.942
 Vibration     9          0.783              1.427              0.892
 Vibration    10          0.798              1.388              0.834
 Vibration    11          0.807              1.365              0.801
 Vibration    12          0.839              1.289              0.703
 Vibration    13          0.898              1.155              0.559
 Vibration    14          0.917              1.116              0.522
 Vibration    15          0.946              1.055              0.469

 Optimization completed.
    -- Stationary point found.
 Normal termination of Gaussian 16 at Thu Apr 24 11:10:32 2025.
