 Gaussian 16, Revision C.01,
 Gaussian 16:  AS64L-G16RevC.01  3-Jul-2019

 ----------------------------------------------------------------------
 # opt=(calcfc,tight) freq 6-311+g(d,p) scrf=(smd,solvent=thf) nosymm s
 cf=(qc,fermi,xqc) geom=connectivity int=ultrafine m062x
 ----------------------------------------------------------------------

 -------------------------
 4-no2-phboh2-opt-freq-thf
 -------------------------
 Symbolic Z-matrix:
 Charge =  0 Multiplicity = 1

 SCF Done:  E(RM062X) =  -612.730182399     A.U. after   15 cycles
 SCF Done:  E(RM062X) =  -612.730348167     A.U. after   13 cycles
 SCF Done:  E(RM062X) =  -612.730347101     A.U. after   13 cycles
 SCF Done:  E(RM062X) =  -612.730348653     A.U. after   12 cycles
 SCF Done:  E(RM062X) =  -612.730348656     A.U. after    8 cycles
 SCF Done:  E(RM062X) =  -612.730348669     A.U. after   10 cycles
 SCF Done:  E(RM062X) =  -612.730348670     A.U. after    9 cycles
 SCF Done:  E(RM062X) =  -612.730348670     A.U. after    7 cycles
 Optimization completed.
    -- Stationary point found.
 Normal termination of Gaussian 16 at Wed Apr 30 05:28:50 2025.

 ----------------------------------------------------------------------
 #N Geom=AllCheck Guess=TCheck SCRF=Check GenChk RM062X/6-311+G(d,p) Fr
 eq
 ----------------------------------------------------------------------

 Structure from the checkpoint file:  "4-no2-phboh2-opt-freq-thf.chk"
 -------------------------
 4-no2-phboh2-opt-freq-thf
 -------------------------
 Charge =  0 Multiplicity = 1

                          Input orientation:
 ---------------------------------------------------------------------
 Center     Atomic      Atomic             Coordinates (Angstroms)
 Number     Number       Type             X           Y           Z
 ---------------------------------------------------------------------
      1          8           0        8.709033    7.367675    5.352928
      2          1           0        9.540489    7.105336    5.765499
      3          6           0        6.235370    6.951298    5.177984
      4          5           0        7.657929    6.606371    5.763902
      5          8           0        7.893126    5.601669    6.656038
      6          1           0        7.112317    5.115770    6.938699
      7          6           0        5.117503    6.139359    5.402396
      8          1           0        5.198263    5.225129    5.981641
      9          6           0        3.870427    6.467123    4.886771
     10          1           0        3.005256    5.841386    5.059039
     11          6           0        3.761215    7.627694    4.135657
     12          6           0        4.840245    8.461441    3.879854
     13          1           0        4.712712    9.356975    3.286817
     14          6           0        6.075416    8.109443    4.406564
     15          1           0        6.931224    8.746873    4.217812
     16          7           0        2.440075    7.989519    3.584237
     17          8           0        1.497638    7.272731    3.851367
     18          8           0        2.365949    8.984520    2.893447
 ---------------------------------------------------------------------

 SCF Done:  E(RM062X) =  -612.730348670     A.U. after    1 cycles

 Alpha  occ. eigenvalues --  -19.67205 -19.67192 -19.64330 -19.63768 -15.01105
 Alpha  occ. eigenvalues --  -10.61402 -10.57132 -10.57003 -10.56692 -10.56242
 Alpha  occ. eigenvalues --  -10.55166  -7.09361  -1.38641  -1.19779  -1.17363
 Alpha  occ. eigenvalues --   -1.13727  -1.00029  -0.91071  -0.86993  -0.79943
 Alpha  occ. eigenvalues --   -0.71731  -0.69255  -0.66150  -0.65756  -0.63979
 Alpha  occ. eigenvalues --   -0.63454  -0.61599  -0.57214  -0.54065  -0.53201
 Alpha  occ. eigenvalues --   -0.51265  -0.49080  -0.48749  -0.46304  -0.45885
 Alpha  occ. eigenvalues --   -0.42364  -0.41134  -0.40930  -0.39707  -0.39336
 Alpha  occ. eigenvalues --   -0.39297  -0.33758  -0.33118
 Alpha virt. eigenvalues --   -0.06664  -0.00197   0.00006   0.01501   0.01864
 Alpha virt. eigenvalues --    0.02031   0.02891   0.04253   0.04648   0.04772
 Alpha virt. eigenvalues --    0.07637   0.07856   0.08142   0.09087   0.09567

 Mulliken charges:
               1
     1  O   -0.380714
     2  H    0.330111
     3  C   -0.140842
     4  B    0.514962
     5  O   -0.382575
     6  H    0.288013
     7  C   -0.440280
     8  H    0.184600
     9  C    0.141877
    10  H    0.212443
    11  C   -0.127235
    12  C    0.163201
    13  H    0.213135
    14  C   -0.527240
    15  H    0.209519
    16  N   -0.184590
    17  O   -0.038947
    18  O   -0.035440
 Sum of Mulliken charges =   0.00000

 Dipole moment (field-independent basis, Debye):
    X=              4.2266    Y=             -2.5507    Z=              3.0157  Tot=              5.7849
 Quadrupole moment (field-independent basis, Debye-Ang):
   XX=            -39.3020   YY=           -101.9025   ZZ=            -41.3233
   XY=             22.8755   XZ=             29.5663   YZ=              7.7458

  Exact polarizability:     165.586       3.357     126.954      21.000     -37.082      99.316
 Approx polarizability:     154.006      10.218     133.947      12.705     -37.765     101.319

                      1                      2                      3
                      A                      A                      A
 Frequencies --     28.5940                39.0350                76.0637
 Red. masses --      9.3902                 4.9981                 7.8289
 Frc consts  --      0.0045                 0.0045                 0.0267
 IR Inten    --      1.2694                 1.1355                 2.7798

                      4                      5                      6
                      A                      A                      A
 Frequencies --    141.6596               225.7212               269.0303
 Red. masses --      7.3136                 6.4665                 7.3217
 Frc consts  --      0.0865                 0.1941                 0.3122
 IR Inten    --      4.4051                 2.8044                 4.3233

                      7                      8                      9
                      A                      A                      A
 Frequencies --    278.1122               406.9734               417.5599
 Red. masses --      8.2832                 2.7348                 4.8028
 Frc consts  --      0.3775                 0.2669                 0.4934
 IR Inten    --      2.0726                 5.1175                 5.9026

                     10                     11                     12
                      A                      A                      A
 Frequencies --    441.0891               450.0249               479.3795
 Red. masses --      3.7717                 5.1924                 1.1177
 Frc consts  --      0.4324                 0.6196                 0.1513
 IR Inten    --      4.6481                37.1874               249.9228

                     13                     14                     15
                      A                      A                      A
 Frequencies --    541.8622               553.0279               589.5312
 Red. masses --      5.7252                 1.3660                 4.6751
 Frc consts  --      0.9904                 0.2462                 0.9573
 IR Inten    --      3.0545                 6.9513                27.5331

                     16                     17                     18
                      A                      A                      A
 Frequencies --    635.9981               640.5282               713.8835
 Red. masses --      4.3943                 5.7524                 3.5421
 Frc consts  --      1.0473                 1.3905                 1.0636
 IR Inten    --     75.1742                35.6448                97.2920

                     19                     20                     21
                      A                      A                      A
 Frequencies --    746.6210               761.9183               861.5102
 Red. masses --      8.1632                 6.7337                 1.3320
 Frc consts  --      2.6811                 2.3031                 0.5825
 IR Inten    --      0.3616                24.0585                 8.4748

                     22                     23                     24
                      A                      A                      A
 Frequencies --    876.9371               897.0940               991.7943
 Red. masses --      1.5858                10.6717                 1.4235
 Frc consts  --      0.7185                 5.0601                 0.8250
 IR Inten    --     34.3485                59.7891               142.3318

                     25                     26                     27
                      A                      A                      A
 Frequencies --    997.1425              1021.2697              1028.7654
 Red. masses --      1.3023                 1.3747                 2.0779
 Frc consts  --      0.7629                 0.8448                 1.2957
 IR Inten    --     12.4701                 2.5609               125.9246

                     28                     29                     30
                      A                      A                      A
 Frequencies --   1036.9605              1128.5210              1139.4477
 Red. masses --      1.9215                 2.4953                 1.5230
 Frc consts  --      1.2174                 1.8723                 1.1650
 IR Inten    --     61.4986                38.2576                62.8287

                     31                     32                     33
                      A                      A                      A
 Frequencies --   1142.3282              1219.5295              1314.8258
 Red. masses --      2.3161                 1.2786                 3.3210
 Frc consts  --      1.7807                 1.1204                 3.3827
 IR Inten    --     44.8453                 3.2679                63.5934

                     34                     35                     36
                      A                      A                      A
 Frequencies --   1348.1430              1371.9069              1401.5012
 Red. masses --      1.7168                 4.5005                 4.4571
 Frc consts  --      1.8384                 4.9907                 5.1581
 IR Inten    --     71.9093               823.1684               179.3491

                     37                     38                     39
                      A                      A                      A
 Frequencies --   1447.8828              1458.8657              1541.5620
 Red. masses --      4.4745                13.4093                 2.4801
 Frc consts  --      5.5266                16.8146                 3.4725
 IR Inten    --    221.4072               310.5988                11.0802

                     40                     41                     42
                      A                      A                      A
 Frequencies --   1634.4091              1672.1609              1692.4068
 Red. masses --      9.5670                 6.1992                 9.7745
 Frc consts  --     15.0574                10.2128                16.4950
 IR Inten    --    376.5682                10.8972               235.7048

                     43                     44                     45
                      A                      A                      A
 Frequencies --   3196.8972              3219.4635              3249.0480
 Red. masses --      1.0908                 1.0913                 1.0943
 Frc consts  --      6.5680                 6.6646                 6.8062
 IR Inten    --     10.1565                 1.3865                 6.3849

                     46                     47                     48
                      A                      A                      A
 Frequencies --   3250.9583              3847.5357              3879.3312
 Red. masses --      1.0945                 1.0652                 1.0662
 Frc consts  --      6.8152                 9.2906                 9.4538
 IR Inten    --      5.5040               210.0150               137.2675

 - Thermochemistry -
 -------------------
 Temperature   298.150 Kelvin.  Pressure   1.00000 Atm.
 Atom     1 has atomic number  8 and mass  15.99491

 Molecular mass:   167.03899 amu.
 Principal axes and moments of inertia in atomic units:
                           1         2         3
     Eigenvalues --   623.640754007.586804626.49752
           X            0.89688   0.39941  -0.18995
           Y           -0.23577   0.79515   0.55871
           Z            0.37419  -0.45631   0.80732
 This molecule is an asymmetric top.
 Rotational symmetry number  1.
 Warning -- assumption of classical behavior for rotation
           may cause significant error
 Rotational temperatures (Kelvin)      0.13888     0.02161     0.01872
 Rotational constants (GHZ):           2.89388     0.45033     0.39009
 Zero-point vibrational energy     336777.6 (Joules/Mol)
                                   80.49177 (Kcal/Mol)
 Warning -- explicit consideration of  15 degrees of freedom as
           vibrations may cause significant error
 Vibrational temperatures:     41.14    56.16   109.44   203.82   324.76
          (Kelvin)            387.07   400.14   585.54   600.78   634.63
                              647.49   689.72   779.62   795.68   848.20
                              915.06   921.58  1027.12  1074.22  1096.23
                             1239.52  1261.72  1290.72  1426.97  1434.67
                             1469.38  1480.16  1491.95  1623.69  1639.41
                             1643.56  1754.63  1891.74  1939.68  1973.87
                             2016.45  2083.18  2098.98  2217.96  2351.55
                             2405.87  2435.00  4599.62  4632.09  4674.66
                             4677.40  5535.75  5581.49

 Zero-point correction=                           0.128272 (Hartree/Particle)
 Thermal correction to Energy=                    0.138693
 Thermal correction to Enthalpy=                  0.139637
 Thermal correction to Gibbs Free Energy=         0.090378
 Sum of electronic and zero-point Energies=           -612.602077
 Sum of electronic and thermal Energies=              -612.591655
 Sum of electronic and thermal Enthalpies=            -612.590711
 Sum of electronic and thermal Free Energies=         -612.639970

                     E (Thermal)             CV                S
                      KCal/Mol        Cal/Mol-Kelvin    Cal/Mol-Kelvin
 Total                   87.031             38.678            103.674
 Electronic               0.000              0.000              0.000
 Translational            0.889              2.981             41.247
 Rotational               0.889              2.981             30.826
 Vibrational             85.254             32.716             31.601
 Vibration     1          0.593              1.984              5.925
 Vibration     2          0.594              1.981              5.307
 Vibration     3          0.599              1.965              3.990
 Vibration     4          0.615              1.912              2.781
 Vibration     5          0.650              1.802              1.913
 Vibration     6          0.673              1.730              1.602
 Vibration     7          0.679              1.714              1.545
 Vibration     8          0.772              1.455              0.937
 Vibration     9          0.781              1.432              0.900
 Vibration    10          0.801              1.381              0.823
 Vibration    11          0.809              1.361              0.796
 Vibration    12          0.836              1.296              0.712
 Vibration    13          0.897              1.158              0.561
 Vibration    14          0.908              1.133              0.538
 Vibration    15          0.947              1.054              0.468

 Optimization completed.
    -- Stationary point found.
 Normal termination of Gaussian 16 at Wed Apr 30 05:30:47 2025.
