 Gaussian 16, Revision C.01,
 Gaussian 16:  AS64L-G16RevC.01  3-Jul-2019

 ----------------------------------------------------------------------
 # opt=(calcfc,tight) freq 6-311+g(d,p) scrf=(smd,solvent=thf) nosymm s
 cf=(qc,fermi,xqc) geom=connectivity int=ultrafine m062x
 ----------------------------------------------------------------------

 ---------------------------
 4-no2-ph-anion-opt-freq-thf
 ---------------------------
 Symbolic Z-matrix:
 Charge = -1 Multiplicity = 1

 SCF Done:  E(RM062X) =  -436.134515942     A.U. after   17 cycles
 SCF Done:  E(RM062X) =  -436.148520918     A.U. after   15 cycles
 SCF Done:  E(RM062X) =  -436.149021345     A.U. after   15 cycles
 SCF Done:  E(RM062X) =  -436.149024648     A.U. after   11 cycles
 SCF Done:  E(RM062X) =  -436.149024754     A.U. after   10 cycles
 SCF Done:  E(RM062X) =  -436.149024789     A.U. after    9 cycles
 SCF Done:  E(RM062X) =  -436.149024791     A.U. after    9 cycles
 SCF Done:  E(RM062X) =  -436.149024791     A.U. after    6 cycles
 Optimization completed.
    -- Stationary point found.
 Normal termination of Gaussian 16 at Tue May 27 08:08:26 2025.

 ----------------------------------------------------------------------
 #N Geom=AllCheck Guess=TCheck SCRF=Check GenChk RM062X/6-311+G(d,p) Fr
 eq
 ----------------------------------------------------------------------

 Structure from the checkpoint file:  "4-no2-ph-anion-opt-freq-thf.chk"
 ---------------------------
 4-no2-ph-anion-opt-freq-thf
 ---------------------------
 Charge = -1 Multiplicity = 1

                          Input orientation:
 ---------------------------------------------------------------------
 Center     Atomic      Atomic             Coordinates (Angstroms)
 Number     Number       Type             X           Y           Z
 ---------------------------------------------------------------------
      1          6           0        6.301867    6.925049    5.198616
      2          6           0        5.128004    6.154354    5.398724
      3          1           0        5.184295    5.240233    5.988957
      4          6           0        3.871198    6.472785    4.890067
      5          1           0        3.004122    5.848572    5.071015
      6          6           0        3.744393    7.631788    4.129511
      7          6           0        4.840240    8.453551    3.881211
      8          1           0        4.718441    9.351147    3.286580
      9          6           0        6.072683    8.084233    4.414077
     10          1           0        6.904478    8.753400    4.196034
     11          7           0        2.441022    7.990625    3.582080
     12          8           0        1.495245    7.250380    3.796727
     13          8           0        2.345306    9.017373    2.929985
 ---------------------------------------------------------------------

 SCF Done:  E(RM062X) =  -436.149024791     A.U. after    1 cycles

 Alpha  occ. eigenvalues --  -19.64007 -19.64003 -14.97937 -10.56629 -10.52705
 Alpha  occ. eigenvalues --  -10.52703 -10.50498 -10.50495 -10.46796  -1.35188
 Alpha  occ. eigenvalues --   -1.16176  -0.95092  -0.85562  -0.81653  -0.73895
 Alpha  occ. eigenvalues --   -0.65854  -0.64423  -0.61358  -0.60794  -0.58382
 Alpha  occ. eigenvalues --   -0.49816  -0.47893  -0.47000  -0.46145  -0.41307
 Alpha  occ. eigenvalues --   -0.37432  -0.36496  -0.36128  -0.35759  -0.28526
 Alpha  occ. eigenvalues --   -0.27441  -0.21029
 Alpha virt. eigenvalues --   -0.02986   0.03575   0.04411   0.05011   0.05900
 Alpha virt. eigenvalues --    0.07507   0.07760   0.07974   0.08494   0.09901
 Alpha virt. eigenvalues --    0.11280   0.11323   0.11985   0.13185   0.15371

 Mulliken charges:
               1
     1  C   -0.855253
     2  C   -0.184256
     3  H    0.161445
     4  C   -0.017254
     5  H    0.189652
     6  C   -0.084299
     7  C   -0.015843
     8  H    0.189541
     9  C   -0.184992
    10  H    0.161398
    11  N   -0.214305
    12  O   -0.072935
    13  O   -0.072898
 Sum of Mulliken charges =  -1.00000

 Dipole moment (field-independent basis, Debye):
    X=            -24.4013    Y=            -34.8786    Z=            -22.5083  Tot=             48.1514
 Quadrupole moment (field-independent basis, Debye-Ang):
   XX=           -212.0650   YY=           -310.9507   ZZ=           -167.4836
   XY=           -167.6173   XZ=           -128.0358   YZ=           -160.7503

  Exact polarizability:     173.988      -3.029     124.936      26.760     -33.262     100.242
 Approx polarizability:     151.197       5.157     125.452      16.738     -32.993      95.078

                      1                      2                      3
                      A                      A                      A
 Frequencies --     37.2996               166.5246               263.0819
 Red. masses --      7.7376                 7.9309                 6.9127
 Frc consts  --      0.0063                 0.1296                 0.2819
 IR Inten    --      0.0193                36.9030                10.6335

                      4                      5                      6
                      A                      A                      A
 Frequencies --    374.0871               404.9223               417.6204
 Red. masses --      2.6914                10.3290                 4.3847
 Frc consts  --      0.2219                 0.9978                 0.4506
 IR Inten    --      0.0774                 1.9123                26.2257

                      7                      8                      9
                      A                      A                      A
 Frequencies --    537.5688               633.7504               669.8880
 Red. masses --      8.4462                 7.0764                 3.8316
 Frc consts  --      1.4381                 1.6745                 1.0131
 IR Inten    --      7.2142                 2.5526                 0.7539

                     10                     11                     12
                      A                      A                      A
 Frequencies --    690.3369               743.1782               832.7099
 Red. masses --      7.8159                 4.3392                 1.6505
 Frc consts  --      2.1946                 1.4120                 0.6743
 IR Inten    --     17.6721                48.8872                27.0444

                     13                     14                     15
                      A                      A                      A
 Frequencies --    866.8017               889.2533               991.3163
 Red. masses --      1.2607                11.1075                 7.2571
 Frc consts  --      0.5581                 5.1751                 4.2018
 IR Inten    --      0.0530                49.7092                 0.4353

                     16                     17                     18
                      A                      A                      A
 Frequencies --    997.5262              1013.9183              1039.7329
 Red. masses --      1.2665                 1.4160                 2.5828
 Frc consts  --      0.7425                 0.8576                 1.6451
 IR Inten    --      1.6698                 0.0013                 2.8480

                     19                     20                     21
                      A                      A                      A
 Frequencies --   1106.1172              1137.7432              1214.7800
 Red. masses --      1.4542                 2.3256                 1.4321
 Frc consts  --      1.0483                 1.7736                 1.2451
 IR Inten    --      4.6794               171.6299                 0.7039

                     22                     23                     24
                      A                      A                      A
 Frequencies --   1274.1449              1339.6500              1400.8145
 Red. masses --      5.1646                 1.3731                 2.6967
 Frc consts  --      4.9400                 1.4518                 3.1177
 IR Inten    --      1.5686                 0.0193                 4.2022

                     25                     26                     27
                      A                      A                      A
 Frequencies --   1414.3888              1487.9158              1587.4617
 Red. masses --     10.6998                 2.0557                 9.2992
 Frc consts  --     12.6114                 2.6814                13.8071
 IR Inten    --   1037.6880                 2.2739               370.3003

                     28                     29                     30
                      A                      A                      A
 Frequencies --   1592.1747              1655.3121              3127.9318
 Red. masses --      5.5630                 9.6922                 1.0876
 Frc consts  --      8.3089                15.6470                 6.2693
 IR Inten    --     23.4319               247.8036                93.6924

                     31                     32                     33
                      A                      A                      A
 Frequencies --   3129.3503              3219.0207              3221.7017
 Red. masses --      1.0879                 1.0929                 1.0927
 Frc consts  --      6.2771                 6.6721                 6.6821
 IR Inten    --     23.2277                 1.4317                 2.1477

 - Thermochemistry -
 -------------------
 Temperature   298.150 Kelvin.  Pressure   1.00000 Atm.
 Atom     1 has atomic number  6 and mass  12.00000

 Molecular mass:   122.02420 amu.
 Principal axes and moments of inertia in atomic units:
                           1         2         3
     Eigenvalues --   443.366091378.296141821.62226
           X            0.89380   0.39885  -0.20504
           Y           -0.24652   0.81888   0.51832
           Z            0.37463  -0.41273   0.83025
 This molecule is an asymmetric top.
 Rotational symmetry number  1.
 Warning -- assumption of classical behavior for rotation
           may cause significant error
 Rotational temperatures (Kelvin)      0.19536     0.06284     0.04755
 Rotational constants (GHZ):           4.07054     1.30940     0.99073
 Zero-point vibrational energy     236131.0 (Joules/Mol)
                                   56.43667 (Kcal/Mol)
 Warning -- explicit consideration of   7 degrees of freedom as
           vibrations may cause significant error
 Vibrational temperatures:     53.67   239.59   378.52   538.23   582.59
          (Kelvin)            600.86   773.44   911.83   963.82   993.24
                             1069.27  1198.08  1247.13  1279.44  1426.28
                             1435.22  1458.80  1495.94  1591.46  1636.96
                             1747.80  1833.21  1927.46  2015.46  2034.99
                             2140.78  2284.00  2290.78  2381.62  4500.40
                             4502.44  4631.45  4635.31

 Zero-point correction=                           0.089938 (Hartree/Particle)
 Thermal correction to Energy=                    0.096768
 Thermal correction to Enthalpy=                  0.097712
 Thermal correction to Gibbs Free Energy=         0.057686
 Sum of electronic and zero-point Energies=           -436.059087
 Sum of electronic and thermal Energies=              -436.052257
 Sum of electronic and thermal Enthalpies=            -436.051313
 Sum of electronic and thermal Free Energies=         -436.091339

                     E (Thermal)             CV                S
                      KCal/Mol        Cal/Mol-Kelvin    Cal/Mol-Kelvin
 Total                   60.723             25.169             84.241
 Electronic               0.000              0.000              0.000
 Translational            0.889              2.981             40.311
 Rotational               0.889              2.981             28.500
 Vibrational             58.945             19.208             15.430
 Vibration     1          0.594              1.982              5.398
 Vibration     2          0.624              1.884              2.474
 Vibration     3          0.670              1.741              1.641
 Vibration     4          0.745              1.525              1.063
 Vibration     5          0.770              1.460              0.945
 Vibration     6          0.781              1.432              0.900
 Vibration     7          0.893              1.167              0.571

 Optimization completed.
    -- Stationary point found.
 Normal termination of Gaussian 16 at Tue May 27 08:09:21 2025.
