 Gaussian 16, Revision C.01,
 Gaussian 16:  AS64L-G16RevC.01  3-Jul-2019

 ----------------------------------------------------------------------
 # opt=(calcfc,tight) freq 6-311+g(d,p) nosymm scf=(qc,fermi,xqc) geom=
 connectivity int=ultrafine m062x
 ----------------------------------------------------------------------

 ------------------------
 2-6-diMe-phboh2-opt-freq
 ------------------------
 Symbolic Z-matrix:
 Charge =  0 Multiplicity = 1

 SCF Done:  E(RM062X) =  -486.818970540     A.U. after   14 cycles
 SCF Done:  E(RM062X) =  -486.830964662     A.U. after   15 cycles
 SCF Done:  E(RM062X) =  -486.811475725     A.U. after   14 cycles
 SCF Done:  E(RM062X) =  -486.828387955     A.U. after   16 cycles
 SCF Done:  E(RM062X) =  -486.831330533     A.U. after   12 cycles
 SCF Done:  E(RM062X) =  -486.831774109     A.U. after   12 cycles
 SCF Done:  E(RM062X) =  -486.831862910     A.U. after   12 cycles
 SCF Done:  E(RM062X) =  -486.831973740     A.U. after   11 cycles
 SCF Done:  E(RM062X) =  -486.832139931     A.U. after   11 cycles
 SCF Done:  E(RM062X) =  -486.832343774     A.U. after   12 cycles
 SCF Done:  E(RM062X) =  -486.833565349     A.U. after    9 cycles
 SCF Done:  E(RM062X) =  -486.833565408     A.U. after    9 cycles
 SCF Done:  E(RM062X) =  -486.833565437     A.U. after    8 cycles
 SCF Done:  E(RM062X) =  -486.833565457     A.U. after    8 cycles
 SCF Done:  E(RM062X) =  -486.833565465     A.U. after    7 cycles
 SCF Done:  E(RM062X) =  -486.833565471     A.U. after    7 cycles
 SCF Done:  E(RM062X) =  -486.833565473     A.U. after    7 cycles
 SCF Done:  E(RM062X) =  -486.833565473     A.U. after    7 cycles
 SCF Done:  E(RM062X) =  -486.833565473     A.U. after    5 cycles
 Optimization completed.
    -- Stationary point found.
 Normal termination of Gaussian 16 at Mon May  5 08:00:34 2025.

 ----------------------------------------------------------------------
 #N Geom=AllCheck Guess=TCheck SCRF=Check GenChk RM062X/6-311+G(d,p) Fr
 eq
 ----------------------------------------------------------------------

 Structure from the checkpoint file:  "2-6-diMe-phboh2-opt-freq.chk"
 ------------------------
 2-6-diMe-phboh2-opt-freq
 ------------------------
 Charge =  0 Multiplicity = 1

                          Input orientation:
 ---------------------------------------------------------------------
 Center     Atomic      Atomic             Coordinates (Angstroms)
 Number     Number       Type             X           Y           Z
 ---------------------------------------------------------------------
      1          8           0        8.773018    6.656789    4.952392
      2          1           0        9.562277    6.385791    5.431837
      3          6           0        6.254404    6.982363    5.145873
      4          5           0        7.655266    6.556593    5.724525
      5          8           0        7.821864    6.083629    7.000791
      6          1           0        7.008340    6.072296    7.509177
      7          6           0        5.146805    6.121057    5.245970
      8          6           0        3.911208    6.519957    4.734520
      9          1           0        3.063954    5.845454    4.799749
     10          6           0        3.761331    7.765410    4.142372
     11          6           0        4.851896    8.620629    4.044126
     12          1           0        4.735016    9.593443    3.578820
     13          6           0        6.101170    8.240717    4.530567
     14          1           0        2.796541    8.068747    3.752241
     15          6           0        7.269270    9.187157    4.384583
     16          1           0        7.801077    9.317132    5.330083
     17          1           0        7.992232    8.800227    3.664125
     18          1           0        6.929816   10.167287    4.047959
     19          6           0        5.253505    4.754956    5.889627
     20          1           0        6.224193    4.289036    5.713631
     21          1           0        5.102312    4.809289    6.973237
     22          1           0        4.484536    4.088501    5.496951
 ---------------------------------------------------------------------

 SCF Done:  E(RM062X) =  -486.833565473     A.U. after    1 cycles

 Alpha  occ. eigenvalues --  -19.63875 -19.63230 -10.55475 -10.55148 -10.54201
 Alpha  occ. eigenvalues --  -10.53911 -10.53640 -10.53492 -10.52550 -10.52447
 Alpha  occ. eigenvalues --   -7.08510  -1.17014  -1.13211  -0.96379  -0.88206
 Alpha  occ. eigenvalues --   -0.85650  -0.78407  -0.76914  -0.68779  -0.65171
 Alpha  occ. eigenvalues --   -0.65087  -0.62182  -0.57304  -0.54559  -0.52081
 Alpha  occ. eigenvalues --   -0.50052  -0.48986  -0.48022  -0.47303  -0.46931
 Alpha  occ. eigenvalues --   -0.46689  -0.45657  -0.44167  -0.43171  -0.41192
 Alpha  occ. eigenvalues --   -0.40340  -0.39336  -0.37041  -0.30007  -0.29152
 Alpha virt. eigenvalues --   -0.00216   0.00383   0.01489   0.01820   0.02188
 Alpha virt. eigenvalues --    0.02572   0.03651   0.03833   0.04456   0.06341
 Alpha virt. eigenvalues --    0.06642   0.06692   0.06786   0.07987   0.09438

 Mulliken charges:
               1
     1  O   -0.261700
     2  H    0.272824
     3  C   -1.382203
     4  B    0.252503
     5  O   -0.241695
     6  H    0.251399
     7  C    1.175755
     8  C   -0.797228
     9  H    0.152273
    10  C   -0.045010
    11  C   -0.760433
    12  H    0.151188
    13  C    1.353804
    14  H    0.155932
    15  C   -0.708490
    16  H    0.177377
    17  H    0.218715
    18  H    0.161860
    19  C   -0.684947
    20  H    0.191955
    21  H    0.190935
    22  H    0.175186
 Sum of Mulliken charges =   0.00000

 Dipole moment (field-independent basis, Debye):
    X=             -0.5720    Y=             -0.2765    Z=              1.0927  Tot=              1.2640
 Quadrupole moment (field-independent basis, Debye-Ang):
   XX=            -68.2530   YY=            -66.1424   ZZ=            -55.6767
   XY=             -4.2682   XZ=              4.9664   YZ=              3.3169

  Exact polarizability:     126.893       5.111     115.039      10.327     -21.481      86.646
 Approx polarizability:     154.113       5.010     140.210      10.778     -22.256     111.748

                      1                      2                      3
                      A                      A                      A
 Frequencies --     42.3744                82.9858               146.4720
 Red. masses --      5.6197                 3.7352                 1.2137
 Frc consts  --      0.0059                 0.0152                 0.0153
 IR Inten    --      1.7786                 0.3437                 0.2813

                      4                      5                      6
                      A                      A                      A
 Frequencies --    165.1870               182.5065               196.5742
 Red. masses --      1.2571                 2.2439                 3.0512
 Frc consts  --      0.0202                 0.0440                 0.0695
 IR Inten    --      0.8320                 0.6034                 3.6058

                      7                      8                      9
                      A                      A                      A
 Frequencies --    217.9865               286.5686               347.3280
 Red. masses --      2.8130                 3.9207                 3.7923
 Frc consts  --      0.0788                 0.1897                 0.2695
 IR Inten    --      0.0677                 2.6383                 3.1478

                     10                     11                     12
                      A                      A                      A
 Frequencies --    349.9689               433.4822               512.7740
 Red. masses --      3.3225                 2.7499                 3.9588
 Frc consts  --      0.2398                 0.3044                 0.6133
 IR Inten    --      8.4805                 1.3047                27.0804

                     13                     14                     15
                      A                      A                      A
 Frequencies --    520.8338               524.2994               533.4464
 Red. masses --      2.6401                 1.2653                 3.0557
 Frc consts  --      0.4220                 0.2049                 0.5123
 IR Inten    --     26.4231               133.1013                 0.5214

                     16                     17                     18
                      A                      A                      A
 Frequencies --    547.5310               597.4127               629.5434
 Red. masses --      4.5924                 1.3035                 4.0054
 Frc consts  --      0.8112                 0.2741                 0.9353
 IR Inten    --      1.7296                12.9938                14.7542

                     19                     20                     21
                      A                      A                      A
 Frequencies --    687.4145               765.3468               784.5325
 Red. masses --      4.1530                 3.8747                 5.4182
 Frc consts  --      1.1563                 1.3372                 1.9648
 IR Inten    --     78.5039                 5.1158                 2.9330

                     22                     23                     24
                      A                      A                      A
 Frequencies --    793.6535               922.5092               933.6901
 Red. masses --      1.2642                 1.3066                 2.7527
 Frc consts  --      0.4692                 0.6552                 1.4139
 IR Inten    --     39.0522                 0.0098                 2.0256

                     25                     26                     27
                      A                      A                      A
 Frequencies --   1004.2720              1008.0814              1016.6923
 Red. masses --      1.5611                 1.3450                 1.4883
 Frc consts  --      0.9276                 0.8053                 0.9064
 IR Inten    --     86.7320                 6.5995                 3.5183

                     28                     29                     30
                      A                      A                      A
 Frequencies --   1039.9056              1052.1384              1058.2177
 Red. masses --      1.4588                 1.6855                 1.6104
 Frc consts  --      0.9295                 1.0993                 1.0625
 IR Inten    --    121.0773                 3.2714                 3.0862

                     31                     32                     33
                      A                      A                      A
 Frequencies --   1063.1138              1096.7285              1151.5368
 Red. masses --      1.5536                 2.6078                 1.6905
 Frc consts  --      1.0345                 1.8481                 1.3208
 IR Inten    --      0.6617                38.8367                18.5502

                     34                     35                     36
                      A                      A                      A
 Frequencies --   1190.2634              1272.4838              1277.7887
 Red. masses --      1.2148                 1.7223                 3.4195
 Frc consts  --      1.0140                 1.6431                 3.2895
 IR Inten    --      2.6668                 3.2087                 2.3788

                     37                     38                     39
                      A                      A                      A
 Frequencies --   1301.2712              1370.8521              1406.2891
 Red. masses --      5.6698                 4.1253                 4.2915
 Frc consts  --      5.6566                 4.5675                 5.0004
 IR Inten    --      1.8476               320.0141               271.8358

                     40                     41                     42
                      A                      A                      A
 Frequencies --   1419.2053              1421.0834              1479.6786
 Red. masses --      1.2808                 1.3027                 1.6417
 Frc consts  --      1.5199                 1.5501                 2.1178
 IR Inten    --      5.2564                13.7570                96.1338

                     43                     44                     45
                      A                      A                      A
 Frequencies --   1491.3628              1493.9799              1502.7331
 Red. masses --      1.1668                 1.1796                 1.1682
 Frc consts  --      1.5290                 1.5513                 1.5543
 IR Inten    --      2.5965                21.2567                14.7836

                     46                     47                     48
                      A                      A                      A
 Frequencies --   1507.5515              1518.8600              1644.3505
 Red. masses --      1.6238                 1.6936                 6.8055
 Frc consts  --      2.1743                 2.3019                10.8417
 IR Inten    --     43.0115                 1.8555                25.4996

                     49                     50                     51
                      A                      A                      A
 Frequencies --   1667.2066              3050.2147              3067.3795
 Red. masses --      6.0907                 1.0451                 1.0367
 Frc consts  --      9.9747                 5.7290                 5.7468
 IR Inten    --     29.3045                22.2225                16.8698

                     52                     53                     54
                      A                      A                      A
 Frequencies --   3118.5882              3131.8577              3150.3599
 Red. masses --      1.0908                 1.0999                 1.1030
 Frc consts  --      6.2504                 6.3561                 6.4498
 IR Inten    --     11.8557                 9.4410                 9.0217

                     55                     56                     57
                      A                      A                      A
 Frequencies --   3150.6101              3190.5790              3198.3890
 Red. masses --      1.1030                 1.0867                 1.0912
 Frc consts  --      6.4511                 6.5176                 6.5770
 IR Inten    --     12.5736                 0.5980                15.0864

                     58                     59                     60
                      A                      A                      A
 Frequencies --   3216.7428              3892.9601              3937.1995
 Red. masses --      1.0974                 1.0650                 1.0661
 Frc consts  --      6.6900                 9.5095                 9.7370
 IR Inten    --     14.6147                89.9741                59.7050

 - Thermochemistry -
 -------------------
 Temperature   298.150 Kelvin.  Pressure   1.00000 Atm.
 Atom     1 has atomic number  8 and mass  15.99491

 Molecular mass:   150.08521 amu.
 Principal axes and moments of inertia in atomic units:
                           1         2         3
     Eigenvalues --  1207.212411720.050412712.72719
           X            0.89428   0.39915  -0.20234
           Y           -0.26536   0.83707   0.47843
           Z            0.36034  -0.37415   0.85450
 This molecule is an asymmetric top.
 Rotational symmetry number  1.
 Warning -- assumption of classical behavior for rotation
           may cause significant error
 Rotational temperatures (Kelvin)      0.07175     0.05036     0.03193
 Rotational constants (GHZ):           1.49497     1.04924     0.66529
 Zero-point vibrational energy     477100.3 (Joules/Mol)
                                  114.02972 (Kcal/Mol)
 Warning -- explicit consideration of  17 degrees of freedom as
           vibrations may cause significant error
 Vibrational temperatures:     60.97   119.40   210.74   237.67   262.59
          (Kelvin)            282.83   313.63   412.31   499.73   503.53
                              623.68   737.77   749.36   754.35   767.51
                              787.78   859.54   905.77   989.04  1101.16
                             1128.77  1141.89  1327.28  1343.37  1444.92
                             1450.40  1462.79  1496.19  1513.79  1522.54
                             1529.58  1577.95  1656.80  1712.52  1830.82
                             1838.45  1872.24  1972.35  2023.34  2041.92
                             2044.62  2128.93  2145.74  2149.50  2162.10
                             2169.03  2185.30  2365.85  2398.74  4388.58
                             4413.27  4486.95  4506.04  4532.67  4533.03
                             4590.53  4601.77  4628.18  5601.10  5664.75

 Zero-point correction=                           0.181718 (Hartree/Particle)
 Thermal correction to Energy=                    0.192750
 Thermal correction to Enthalpy=                  0.193694
 Thermal correction to Gibbs Free Energy=         0.145054
 Sum of electronic and zero-point Energies=           -486.651848
 Sum of electronic and thermal Energies=              -486.640816
 Sum of electronic and thermal Enthalpies=            -486.639872
 Sum of electronic and thermal Free Energies=         -486.688511

                     E (Thermal)             CV                S
                      KCal/Mol        Cal/Mol-Kelvin    Cal/Mol-Kelvin
 Total                  120.952             41.793            102.371
 Electronic               0.000              0.000              0.000
 Translational            0.889              2.981             40.928
 Rotational               0.889              2.981             30.111
 Vibrational            119.175             35.831             31.331
 Vibration     1          0.595              1.980              5.145
 Vibration     2          0.600              1.961              3.819
 Vibration     3          0.617              1.906              2.718
 Vibration     4          0.624              1.885              2.490
 Vibration     5          0.630              1.864              2.303
 Vibration     6          0.636              1.845              2.165
 Vibration     7          0.646              1.814              1.976
 Vibration     8          0.684              1.699              1.494
 Vibration     9          0.725              1.581              1.178
 Vibration    10          0.727              1.575              1.166
 Vibration    11          0.794              1.397              0.847
 Vibration    12          0.868              1.222              0.627
 Vibration    13          0.876              1.204              0.608
 Vibration    14          0.879              1.196              0.600
 Vibration    15          0.888              1.176              0.580
 Vibration    16          0.903              1.145              0.549
 Vibration    17          0.955              1.037              0.454

 Optimization completed.
    -- Stationary point found.
 Normal termination of Gaussian 16 at Mon May  5 08:03:08 2025.
