 Gaussian 16, Revision C.01,
 Gaussian 16:  AS64L-G16RevC.01  3-Jul-2019

 ----------------------------------------------------------------------
 # opt=(calcfc,tight) freq 6-311+g(d,p) scrf=(smd,solvent=thf) nosymm s
 cf=(qc,fermi,xqc) geom=connectivity int=ultrafine m062x
 ----------------------------------------------------------------------

 ---------------------------------
 2-6-diisopropyl-ph-opt-freq-2-thf
 ---------------------------------
 Symbolic Z-matrix:
 Charge =  0 Multiplicity = 2

 SCF Done:  E(UM062X) =  -467.349594702     A.U. after   16 cycles
 SCF Done:  E(UM062X) =  -467.354560031     A.U. after   15 cycles
 SCF Done:  E(UM062X) =  -467.354594810     A.U. after   12 cycles
 SCF Done:  E(UM062X) =  -467.354595507     A.U. after   10 cycles
 SCF Done:  E(UM062X) =  -467.354595945     A.U. after   10 cycles
 SCF Done:  E(UM062X) =  -467.354595981     A.U. after    9 cycles
 SCF Done:  E(UM062X) =  -467.354596205     A.U. after   10 cycles
 SCF Done:  E(UM062X) =  -467.354593616     A.U. after   12 cycles
 SCF Done:  E(UM062X) =  -467.354596427     A.U. after   12 cycles
 SCF Done:  E(UM062X) =  -467.354596637     A.U. after   10 cycles
 SCF Done:  E(UM062X) =  -467.354596713     A.U. after   10 cycles
 SCF Done:  E(UM062X) =  -467.354596713     A.U. after    8 cycles
 SCF Done:  E(UM062X) =  -467.354596714     A.U. after    6 cycles
 SCF Done:  E(UM062X) =  -467.354596714     A.U. after    4 cycles
 SCF Done:  E(UM062X) =  -467.354596714     A.U. after    3 cycles
 SCF Done:  E(UM062X) =  -467.354596714     A.U. after    5 cycles
 SCF Done:  E(UM062X) =  -467.354596714     A.U. after    4 cycles
 Optimization completed.
    -- Stationary point found.
 Normal termination of Gaussian 16 at Sun May 11 04:32:20 2025.

 ----------------------------------------------------------------------
 #N Geom=AllCheck Guess=TCheck SCRF=Check GenChk UM062X/6-311+G(d,p) Fr
 eq
 ----------------------------------------------------------------------

 Structure from the checkpoint file:  "2-6-diisopropyl-ph-opt-freq-2-thf.chk"
 ---------------------------------
 2-6-diisopropyl-ph-opt-freq-2-thf
 ---------------------------------
 Charge =  0 Multiplicity = 2

                          Input orientation:
 ---------------------------------------------------------------------
 Center     Atomic      Atomic             Coordinates (Angstroms)
 Number     Number       Type             X           Y           Z
 ---------------------------------------------------------------------
      1          6           0        6.200860    6.988756    5.164769
      2          6           0        5.063575    6.515457    5.780023
      3          6           0        3.858196    6.875374    5.159048
      4          1           0        2.915240    6.542434    5.582485
      5          6           0        3.863027    7.655606    4.004864
      6          6           0        5.058599    8.096014    3.441428
      7          1           0        5.040881    8.703361    2.541281
      8          6           0        6.288064    7.760687    4.027926
      9          1           0        2.922027    7.923888    3.537705
     10          6           0        7.613974    8.221846    3.451908
     11          1           0        8.402249    7.796889    4.080353
     12          6           0        5.106557    5.675153    7.042829
     13          1           0        6.161103    5.506533    7.280330
     14          6           0        7.728652    9.748554    3.499626
     15          1           0        8.704526   10.068719    3.124952
     16          1           0        6.958878   10.213900    2.876996
     17          1           0        7.612383   10.122508    4.519648
     18          6           0        7.804340    7.706774    2.022464
     19          1           0        7.041488    8.119456    1.355933
     20          1           0        8.783278    8.005896    1.638666
     21          1           0        7.737550    6.616959    1.981914
     22          6           0        4.435466    4.315726    6.827570
     23          1           0        4.897804    3.772211    6.000152
     24          1           0        4.519048    3.704486    7.730023
     25          1           0        3.372165    4.438540    6.602334
     26          6           0        4.460522    6.421085    8.214509
     27          1           0        3.400828    6.607135    8.016278
     28          1           0        4.533806    5.828431    9.130251
     29          1           0        4.947720    7.383638    8.387582
 ---------------------------------------------------------------------

 SCF Done:  E(UM062X) =  -467.354596714     A.U. after    1 cycles

 Alpha  occ. eigenvalues --  -10.55883 -10.55144 -10.55137 -10.54240 -10.54240
 Alpha  occ. eigenvalues --  -10.54171 -10.54152 -10.53997 -10.51824 -10.51821
 Alpha  occ. eigenvalues --  -10.51811 -10.51810  -0.97573  -0.91551  -0.88633
 Alpha  occ. eigenvalues --   -0.83148  -0.82040  -0.76955  -0.76944  -0.71474
 Alpha  occ. eigenvalues --   -0.68205  -0.66533  -0.61727  -0.56763  -0.55455
 Alpha  occ. eigenvalues --   -0.52044  -0.50523  -0.50427  -0.48745  -0.48545
 Alpha  occ. eigenvalues --   -0.47023  -0.45819  -0.44624  -0.44388  -0.44091
 Alpha  occ. eigenvalues --   -0.42505  -0.41491  -0.39847  -0.39059  -0.38751
 Alpha  occ. eigenvalues --   -0.38441  -0.37379  -0.31096  -0.29469  -0.29388
 Alpha virt. eigenvalues --    0.01706   0.01767   0.02415   0.02654   0.02990
 Alpha virt. eigenvalues --    0.03774   0.04300   0.04499   0.04827   0.05350
 Alpha virt. eigenvalues --    0.06720   0.06819   0.07208   0.07313   0.07515

  Beta  occ. eigenvalues --  -10.55165 -10.55149 -10.54950 -10.54202 -10.54201
  Beta  occ. eigenvalues --  -10.54120 -10.54083 -10.54004 -10.51827 -10.51824
  Beta  occ. eigenvalues --  -10.51814 -10.51812  -0.96755  -0.91375  -0.88554
  Beta  occ. eigenvalues --   -0.81793  -0.81737  -0.76958  -0.76947  -0.71097
  Beta  occ. eigenvalues --   -0.67443  -0.65709  -0.61451  -0.55890  -0.55053
  Beta  occ. eigenvalues --   -0.51598  -0.50325  -0.50276  -0.48343  -0.48284
  Beta  occ. eigenvalues --   -0.47030  -0.44919  -0.44584  -0.44371  -0.43935
  Beta  occ. eigenvalues --   -0.42194  -0.40902  -0.39848  -0.39024  -0.38677
  Beta  occ. eigenvalues --   -0.38024  -0.37006  -0.29619  -0.29392
  Beta virt. eigenvalues --   -0.05833   0.01651   0.01775   0.02634   0.02854
  Beta virt. eigenvalues --    0.03197   0.03869   0.04239   0.04793   0.04868
  Beta virt. eigenvalues --    0.05022   0.06652   0.06820   0.06971   0.07194

 Mulliken charges and spin densities:
               1          2
     1  C   -0.561204   0.989841
     2  C    0.013874  -0.042344
     3  C    0.029631  -0.012833
     4  H    0.193340   0.007045
     5  C   -0.355255  -0.023981
     6  C    0.030586  -0.012955
     7  H    0.193487   0.007048
     8  C    0.010664  -0.042280
     9  H    0.189328   0.002375
    10  C    0.177408   0.028808
    11  H    0.186327  -0.000251
    12  C    0.177093   0.029043
    13  H    0.186422  -0.000266
    14  C   -0.660984   0.017926
    15  H    0.176862  -0.000105
    16  H    0.184753  -0.000085
    17  H    0.178715   0.000534
    18  C   -0.654100   0.016950
    19  H    0.182178  -0.000035
    20  H    0.177209  -0.000051
    21  H    0.179376   0.000372
    22  C   -0.651835   0.016490
    23  H    0.179638   0.000338
    24  H    0.177345  -0.000036
    25  H    0.181548  -0.000026
    26  C   -0.663140   0.018112
    27  H    0.185427  -0.000096
    28  H    0.176752  -0.000121
    29  H    0.178552   0.000582
 Sum of Mulliken charges =   0.00000   1.00000

 Dipole moment (field-independent basis, Debye):
    X=             -0.3256    Y=              0.1056    Z=             -0.1542  Tot=              0.3754
 Quadrupole moment (field-independent basis, Debye-Ang):
   XX=            -74.1858   YY=            -74.3602   ZZ=            -73.2283
   XY=             -0.2664   XZ=             -3.9913   YZ=             -5.9760

  Exact polarizability:     194.866      11.540     166.596     -12.466     -33.045     192.448
 Approx polarizability:     181.276       5.282     150.379      -3.994     -26.095     171.067

                      1                      2                      3
                      A                      A                      A
 Frequencies --     22.6869                32.4298               124.0813
 Red. masses --      2.8242                 2.6721                 3.0949
 Frc consts  --      0.0009                 0.0017                 0.0281
 IR Inten    --      0.0524                 0.0258                 0.1643

                      4                      5                      6
                      A                      A                      A
 Frequencies --    125.7386               145.2683               233.7940
 Red. masses --      3.2012                 3.2384                 1.1124
 Frc consts  --      0.0298                 0.0403                 0.0358
 IR Inten    --      4.5172                 1.0309                 0.1908

                      7                      8                      9
                      A                      A                      A
 Frequencies --    238.0987               247.6787               256.8965
 Red. masses --      1.1344                 1.6286                 1.9835
 Frc consts  --      0.0379                 0.0589                 0.0771
 IR Inten    --      0.3126                 0.9389                 0.1465

                     10                     11                     12
                      A                      A                      A
 Frequencies --    278.4974               279.6508               311.9564
 Red. masses --      1.2192                 1.3300                 3.0641
 Frc consts  --      0.0557                 0.0613                 0.1757
 IR Inten    --      0.0303                 0.8096                 0.0686

                     13                     14                     15
                      A                      A                      A
 Frequencies --    334.3986               337.9931               438.0485
 Red. masses --      2.7231                 4.3427                 2.3870
 Frc consts  --      0.1794                 0.2923                 0.2699
 IR Inten    --      1.0514                 6.8006                 0.1928

                     16                     17                     18
                      A                      A                      A
 Frequencies --    468.4683               503.5433               575.4008
 Red. masses --      3.6124                 3.5054                 2.6415
 Frc consts  --      0.4671                 0.5237                 0.5153
 IR Inten    --      2.1809                 3.4272                 0.1181

                     19                     20                     21
                      A                      A                      A
 Frequencies --    579.5324               639.9639               721.2720
 Red. masses --      3.3382                 4.0674                 4.2961
 Frc consts  --      0.6606                 0.9815                 1.3168
 IR Inten    --      0.0021                 0.0461                 1.4944

                     22                     23                     24
                      A                      A                      A
 Frequencies --    731.8618               819.0014               822.7785
 Red. masses --      2.5141                 1.6122                 3.4811
 Frc consts  --      0.7934                 0.6372                 1.3884
 IR Inten    --     27.3155                64.7214                 3.4824

                     25                     26                     27
                      A                      A                      A
 Frequencies --    908.5192               931.3249               933.1888
 Red. masses --      2.3997                 1.2291                 1.2039
 Frc consts  --      1.1670                 0.6281                 0.6177
 IR Inten    --      1.0167                 0.3049                 2.6152

                     28                     29                     30
                      A                      A                      A
 Frequencies --    935.9897               959.5702               973.2437
 Red. masses --      1.2179                 2.1930                 1.4576
 Frc consts  --      0.6287                 1.1897                 0.8134
 IR Inten    --      0.4775                12.6199                 0.3615

                     31                     32                     33
                      A                      A                      A
 Frequencies --    973.8149               989.9150              1008.3020
 Red. masses --      1.4603                 6.7530                 1.3218
 Frc consts  --      0.8159                 3.8989                 0.7917
 IR Inten    --      0.3156                 0.7791                 0.6848

                     34                     35                     36
                      A                      A                      A
 Frequencies --   1057.8920              1066.8476              1124.7688
 Red. masses --      1.7509                 1.5022                 1.4154
 Frc consts  --      1.1545                 1.0074                 1.0550
 IR Inten    --     26.8643                22.0235                 0.0737

                     37                     38                     39
                      A                      A                      A
 Frequencies --   1137.7947              1140.2395              1173.5454
 Red. masses --      2.2610                 2.2727                 1.2183
 Frc consts  --      1.7245                 1.7410                 0.9885
 IR Inten    --      5.2005                 0.0485                 0.4199

                     40                     41                     42
                      A                      A                      A
 Frequencies --   1176.1573              1194.6809              1265.7564
 Red. masses --      2.0386                 1.8328                 1.9974
 Frc consts  --      1.6615                 1.5412                 1.8855
 IR Inten    --      0.2377                 2.7082                19.5956

                     43                     44                     45
                      A                      A                      A
 Frequencies --   1272.1124              1311.4054              1334.6622
 Red. masses --      2.1181                 3.3397                 2.0502
 Frc consts  --      2.0195                 3.3841                 2.1517
 IR Inten    --      0.3751                 0.1416                 6.3318

                     46                     47                     48
                      A                      A                      A
 Frequencies --   1338.8026              1339.8682              1365.7937
 Red. masses --      1.3789                 1.3726                 1.5282
 Frc consts  --      1.4561                 1.4519                 1.6796
 IR Inten    --      1.1852                 0.8857                16.8875

                     49                     50                     51
                      A                      A                      A
 Frequencies --   1394.8339              1395.5246              1411.5405
 Red. masses --      1.2702                 1.2701                 1.2459
 Frc consts  --      1.4560                 1.4573                 1.4626
 IR Inten    --     12.2730                12.2870                 4.9823

                     52                     53                     54
                      A                      A                      A
 Frequencies --   1412.6590              1459.8369              1477.7572
 Red. masses --      1.2442                 2.3539                 1.0445
 Frc consts  --      1.4629                 2.9556                 1.3439
 IR Inten    --      6.3906                 1.6291                 0.1876

                     55                     56                     57
                      A                      A                      A
 Frequencies --   1478.0790              1482.7267              1483.4945
 Red. masses --      1.0447                 1.1202                 1.0672
 Frc consts  --      1.3447                 1.4510                 1.3838
 IR Inten    --      0.2469                 1.1367                10.2980

                     58                     59                     60
                      A                      A                      A
 Frequencies --   1485.9617              1492.6087              1493.2641
 Red. masses --      1.5121                 1.0541                 1.0528
 Frc consts  --      1.9672                 1.3837                 1.3832
 IR Inten    --      4.6147                12.5299                22.8709

                     61                     62                     63
                      A                      A                      A
 Frequencies --   1499.4708              1501.1274              1606.8195
 Red. masses --      1.1387                 1.3274                 5.1165
 Frc consts  --      1.5085                 1.7623                 7.7832
 IR Inten    --     16.7142                11.2703                 1.9269

                     64                     65                     66
                      A                      A                      A
 Frequencies --   1670.2177              3051.5670              3051.6983
 Red. masses --      8.2433                 1.0350                 1.0350
 Frc consts  --     13.5488                 5.6787                 5.6790
 IR Inten    --      8.5435                21.9055                41.2310

                     67                     68                     69
                      A                      A                      A
 Frequencies --   3053.9934              3054.2937              3069.4539
 Red. masses --      1.0362                 1.0361                 1.0847
 Frc consts  --      5.6941                 5.6947                 6.0210
 IR Inten    --     41.1481                13.6071                17.7347

                     70                     71                     72
                      A                      A                      A
 Frequencies --   3070.5791              3123.2778              3123.3864
 Red. masses --      1.0847                 1.1031                 1.1031
 Frc consts  --      6.0254                 6.3398                 6.3402
 IR Inten    --     16.2201                 2.0276                 3.6097

                     73                     74                     75
                      A                      A                      A
 Frequencies --   3127.7540              3128.1978              3132.1503
 Red. masses --      1.1020                 1.1019                 1.1035
 Frc consts  --      6.3515                 6.3530                 6.3781
 IR Inten    --     50.1939               116.1567                14.9067

                     76                     77                     78
                      A                      A                      A
 Frequencies --   3132.3788              3132.9120              3133.1964
 Red. masses --      1.1035                 1.1031                 1.1032
 Frc consts  --      6.3792                 6.3794                 6.3809
 IR Inten    --     33.1769                49.4342                32.8164

                     79                     80                     81
                      A                      A                      A
 Frequencies --   3186.6533              3191.7363              3213.6860
 Red. masses --      1.0874                 1.0910                 1.0963
 Frc consts  --      6.5058                 6.5484                 6.6712
 IR Inten    --      0.0290                11.2863                10.9394

 - Thermochemistry -
 -------------------
 Temperature   298.150 Kelvin.  Pressure   1.00000 Atm.
 Atom     1 has atomic number  6 and mass  12.00000

 Molecular mass:   161.13303 amu.
 Principal axes and moments of inertia in atomic units:
                           1         2         3
     Eigenvalues --   971.256963753.809363954.17757
           X           -0.49495   0.86167  -0.11201
           Y           -0.50195  -0.17831   0.84632
           Z            0.70927   0.47511   0.52077
 This molecule is an asymmetric top.
 Rotational symmetry number  1.
 Warning -- assumption of classical behavior for rotation
           may cause significant error
 Rotational temperatures (Kelvin)      0.08918     0.02307     0.02190
 Rotational constants (GHZ):           1.85815     0.48078     0.45641
 Zero-point vibrational energy     675328.3 (Joules/Mol)
                                  161.40733 (Kcal/Mol)
 Warning -- explicit consideration of  19 degrees of freedom as
           vibrations may cause significant error
 Vibrational temperatures:     32.64    46.66   178.53   180.91   209.01
          (Kelvin)            336.38   342.57   356.35   369.62   400.70
                              402.36   448.84   481.13   486.30   630.25
                              674.02   724.49   827.87   833.82   920.77
                             1037.75  1052.99  1178.36  1183.79  1307.16
                             1339.97  1342.65  1346.68  1380.61  1400.28
                             1401.10  1424.27  1450.72  1522.07  1534.96
                             1618.29  1637.03  1640.55  1688.47  1692.23
                             1718.88  1821.14  1830.29  1886.82  1920.28
                             1926.24  1927.77  1965.07  2006.85  2007.85
                             2030.89  2032.50  2100.38  2126.16  2126.63
                             2133.31  2134.42  2137.97  2147.53  2148.47
                             2157.40  2159.79  2311.85  2403.07  4390.52
                             4390.71  4394.02  4394.45  4416.26  4417.88
                             4493.70  4493.86  4500.14  4500.78  4506.47
                             4506.79  4507.56  4507.97  4584.88  4592.20
                             4623.78

 Zero-point correction=                           0.257219 (Hartree/Particle)
 Thermal correction to Energy=                    0.270188
 Thermal correction to Enthalpy=                  0.271132
 Thermal correction to Gibbs Free Energy=         0.216611
 Sum of electronic and zero-point Energies=           -467.097378
 Sum of electronic and thermal Energies=              -467.084409
 Sum of electronic and thermal Enthalpies=            -467.083464
 Sum of electronic and thermal Free Energies=         -467.137986

                     E (Thermal)             CV                S
                      KCal/Mol        Cal/Mol-Kelvin    Cal/Mol-Kelvin
 Total                  169.546             49.084            114.750
 Electronic               0.000              0.000              1.377
 Translational            0.889              2.981             41.140
 Rotational               0.889              2.981             31.045
 Vibrational            167.768             43.122             41.188
 Vibration     1          0.593              1.985              6.384
 Vibration     2          0.594              1.983              5.675
 Vibration     3          0.610              1.929              3.036
 Vibration     4          0.611              1.927              3.010
 Vibration     5          0.617              1.908              2.733
 Vibration     6          0.654              1.789              1.850
 Vibration     7          0.656              1.782              1.817
 Vibration     8          0.661              1.767              1.747
 Vibration     9          0.666              1.751              1.683
 Vibration    10          0.679              1.713              1.543
 Vibration    11          0.680              1.711              1.536
 Vibration    12          0.700              1.651              1.352
 Vibration    13          0.716              1.607              1.239
 Vibration    14          0.718              1.600              1.222
 Vibration    15          0.798              1.387              0.833
 Vibration    16          0.826              1.320              0.742
 Vibration    17          0.859              1.242              0.649
 Vibration    18          0.932              1.084              0.494
 Vibration    19          0.936              1.076              0.486

 Optimization completed.
    -- Stationary point found.
 Normal termination of Gaussian 16 at Sun May 11 04:41:33 2025.
