 Gaussian 16, Revision C.01,
 Gaussian 16:  AS64L-G16RevC.01  3-Jul-2019

 ----------------------------------------------------------------------
 # opt=calcfc freq 6-311+g(d,p) scrf=(smd,solvent=thf) nosymm scf=(qc,f
 ermi,xqc,maxcycle=512) geom=connectivity int=ultrafine m062x
 ----------------------------------------------------------------------

 ----------------------------------------
 2-6-diMe-ph-opt-freq-thf-non-tight-2-512
 ----------------------------------------
 Symbolic Z-matrix:
 Charge =  0 Multiplicity = 2

 SCF Done:  E(UM062X) =  -310.135692946     A.U. after   18 cycles
 SCF Done:  E(UM062X) =  -310.135693023     A.U. after   11 cycles
 Optimization completed.
    -- Stationary point found.
 Normal termination of Gaussian 16 at Wed May 14 13:14:34 2025.

 ----------------------------------------------------------------------
 #N Geom=AllCheck Guess=TCheck SCRF=Check GenChk UM062X/6-311+G(d,p) Fr
 eq
 ----------------------------------------------------------------------

 Structure from the checkpoint file:  "2-6-diMe-ph-opt-freq-thf-non-tight-2-512.chk"
 ----------------------------------------
 2-6-diMe-ph-opt-freq-thf-non-tight-2-512
 ----------------------------------------
 Charge =  0 Multiplicity = 2

                          Input orientation:
 ---------------------------------------------------------------------
 Center     Atomic      Atomic             Coordinates (Angstroms)
 Number     Number       Type             X           Y           Z
 ---------------------------------------------------------------------
      1          6           0        6.144143    6.997623    5.073654
      2          6           0        5.120914    6.087625    5.207466
      3          6           0        3.875801    6.514173    4.718243
      4          1           0        3.023574    5.844422    4.784263
      5          6           0        3.733117    7.776863    4.151460
      6          6           0        4.820399    8.644107    4.053758
      7          1           0        4.697184    9.626442    3.608079
      8          6           0        6.083701    8.260936    4.524035
      9          1           0        2.764685    8.089999    3.777961
     10          6           0        7.286916    9.161767    4.429852
     11          1           0        7.726861    9.326925    5.415915
     12          1           0        8.056652    8.714159    3.796554
     13          1           0        7.012095   10.128752    4.006581
     14          6           0        5.307075    4.739425    5.853032
     15          1           0        6.315763    4.359923    5.683858
     16          1           0        5.153831    4.809319    6.933617
     17          1           0        4.589250    4.018828    5.457804
 ---------------------------------------------------------------------

 SCF Done:  E(UM062X) =  -310.135693023     A.U. after    1 cycles

 Alpha  occ. eigenvalues --  -10.55910 -10.55678 -10.55650 -10.54243 -10.54225
 Alpha  occ. eigenvalues --  -10.54032 -10.52861 -10.52854  -0.97374  -0.88498
 Alpha  occ. eigenvalues --   -0.85448  -0.78325  -0.77179  -0.66836  -0.65997
 Alpha  occ. eigenvalues --   -0.56560  -0.54240  -0.49899  -0.49522  -0.47619
 Alpha  occ. eigenvalues --   -0.47114  -0.46970  -0.43559  -0.42972  -0.41739
 Alpha  occ. eigenvalues --   -0.40505  -0.31051  -0.29688  -0.29618
 Alpha virt. eigenvalues --    0.01747   0.01936   0.02054   0.03283   0.03799
 Alpha virt. eigenvalues --    0.05073   0.05140   0.05840   0.06736   0.07264
 Alpha virt. eigenvalues --    0.07932   0.08223   0.09184   0.09377   0.11553

  Beta  occ. eigenvalues --  -10.55691 -10.55672 -10.54978 -10.54182 -10.54153
  Beta  occ. eigenvalues --  -10.54046 -10.52824 -10.52819  -0.96498  -0.88182
  Beta  occ. eigenvalues --   -0.84754  -0.77270  -0.76942  -0.65573  -0.65449
  Beta  occ. eigenvalues --   -0.55638  -0.53679  -0.49315  -0.49186  -0.47649
  Beta  occ. eigenvalues --   -0.46760  -0.46633  -0.43346  -0.41611  -0.41416
  Beta  occ. eigenvalues --   -0.39982  -0.29645  -0.29539
  Beta virt. eigenvalues --   -0.05889   0.01805   0.02117   0.02496   0.03244
  Beta virt. eigenvalues --    0.04216   0.04931   0.05086   0.05735   0.06794
  Beta virt. eigenvalues --    0.07246   0.07546   0.08242   0.08931   0.09155

 Mulliken charges and spin densities:
               1          2
     1  C    0.172656   0.478682
     2  C    0.705712   0.127250
     3  C   -0.595385   0.027347
     4  H    0.192083   0.006334
     5  C   -0.195237  -0.032319
     6  C   -0.837816   0.050584
     7  H    0.190203   0.006530
     8  C    0.334398   0.225643
     9  H    0.190597   0.002879
    10  C   -0.666128   0.062307
    11  H    0.200653  -0.002848
    12  H    0.205582  -0.002883
    13  H    0.181990   0.000102
    14  C   -0.664753   0.054807
    15  H    0.188464  -0.001728
    16  H    0.214698  -0.002376
    17  H    0.182282  -0.000311
 Sum of Mulliken charges =   0.00000   1.00000

 Dipole moment (field-independent basis, Debye):
    X=             -0.3917    Y=              0.1049    Z=             -0.0972  Tot=              0.4170
 Quadrupole moment (field-independent basis, Debye-Ang):
   XX=            -49.3177   YY=            -41.1647   ZZ=            -51.4408
   XY=              0.1278   XZ=             -1.6615   YZ=             -3.8164

  Exact polarizability:     134.317      10.379     137.038       9.494     -23.239      90.745
 Approx polarizability:     124.572       7.028     123.197       8.933     -18.797      86.760

                      1                      2                      3
                      A                      A                      A
 Frequencies --     40.0110                54.1570               190.9567
 Red. masses --      1.0383                 1.0252                 3.3578
 Frc consts  --      0.0010                 0.0018                 0.0721
 IR Inten    --      0.3989                 0.4066                15.4596

                      4                      5                      6
                      A                      A                      A
 Frequencies --    218.2070               256.7948               383.9112
 Red. masses --      3.0248                 2.5827                 2.7150
 Frc consts  --      0.0849                 0.1003                 0.2358
 IR Inten    --      0.0166                 2.7886                 2.8442

                      7                      8                      9
                      A                      A                      A
 Frequencies --    470.2192               505.4590               514.7793
 Red. masses --      3.7488                 4.9955                 3.1683
 Frc consts  --      0.4884                 0.7520                 0.4947
 IR Inten    --      1.1508                 1.5791                 0.1695

                     10                     11                     12
                      A                      A                      A
 Frequencies --    544.4336               694.1383               740.3602
 Red. masses --      5.0893                 3.5137                 5.6399
 Frc consts  --      0.8888                 0.9975                 1.8214
 IR Inten    --      0.2261                 4.1975                 0.2548

                     13                     14                     15
                      A                      A                      A
 Frequencies --    790.0293               914.1895               924.1373
 Red. masses --      1.2131                 1.3206                 2.5596
 Frc consts  --      0.4461                 0.6503                 1.2879
 IR Inten    --     85.4581                 0.2246                 5.3497

                     16                     17                     18
                      A                      A                      A
 Frequencies --    981.0568              1002.9011              1005.3382
 Red. masses --      2.7237                 1.3404                 2.0817
 Frc consts  --      1.5445                 0.7943                 1.2396
 IR Inten    --      0.2300                 0.3072                 1.5043

                     19                     20                     21
                      A                      A                      A
 Frequencies --   1051.1221              1055.2386              1062.2468
 Red. masses --      1.6890                 1.5407                 1.5152
 Frc consts  --      1.0995                 1.0108                 1.0073
 IR Inten    --      5.6252                11.4902                 1.7212

                     22                     23                     24
                      A                      A                      A
 Frequencies --   1110.6672              1173.1608              1256.0953
 Red. masses --      1.5229                 1.1984                 1.8552
 Frc consts  --      1.1069                 0.9718                 1.7245
 IR Inten    --     13.9186                 0.4938                 0.1853

                     25                     26                     27
                      A                      A                      A
 Frequencies --   1284.9581              1312.8796              1404.8962
 Red. masses --      2.9059                 3.9787                 1.2520
 Frc consts  --      2.8269                 4.0405                 1.4560
 IR Inten    --      0.9965                 2.1283                 0.9892

                     28                     29                     30
                      A                      A                      A
 Frequencies --   1407.8515              1429.6109              1473.8117
 Red. masses --      1.2860                 2.4158                 1.0541
 Frc consts  --      1.5018                 2.9091                 1.3490
 IR Inten    --      2.3406                 1.2833                14.1159

                     31                     32                     33
                      A                      A                      A
 Frequencies --   1475.5084              1477.2513              1491.7670
 Red. masses --      1.1894                 1.0578                 1.4953
 Frc consts  --      1.5256                 1.3600                 1.9606
 IR Inten    --      5.7724                 8.3293                29.3275

                     34                     35                     36
                      A                      A                      A
 Frequencies --   1495.9818              1607.2336              1671.6061
 Red. masses --      1.6512                 5.1552                 8.1919
 Frc consts  --      2.1772                 7.8461                13.4866
 IR Inten    --     29.0385                 2.0224                13.4917

                     37                     38                     39
                      A                      A                      A
 Frequencies --   3064.7527              3066.2627              3130.8664
 Red. masses --      1.0375                 1.0362                 1.1021
 Frc consts  --      5.7417                 5.7399                 6.3649
 IR Inten    --     25.7541                19.5485                 8.3366

                     40                     41                     42
                      A                      A                      A
 Frequencies --   3131.2058              3153.1639              3154.8473
 Red. masses --      1.0997                 1.1033                 1.1041
 Frc consts  --      6.3526                 6.4632                 6.4746
 IR Inten    --     13.9039                14.5022                13.1497

                     43                     44                     45
                      A                      A                      A
 Frequencies --   3187.5984              3192.5827              3215.2963
 Red. masses --      1.0880                 1.0915                 1.0964
 Frc consts  --      6.5132                 6.5548                 6.6785
 IR Inten    --      0.2961                12.4766                 9.7574

 - Thermochemistry -
 -------------------
 Temperature   298.150 Kelvin.  Pressure   1.00000 Atm.
 Atom     1 has atomic number  6 and mass  12.00000

 Molecular mass:   105.07043 amu.
 Principal axes and moments of inertia in atomic units:
                           1         2         3
     Eigenvalues --   488.479261026.755171492.83287
           X            0.39196   0.89295  -0.22138
           Y            0.87636  -0.28918   0.38519
           Z           -0.27993   0.34499   0.89589
 This molecule is an asymmetric top.
 Rotational symmetry number  1.
 Warning -- assumption of classical behavior for rotation
           may cause significant error
 Rotational temperatures (Kelvin)      0.17731     0.08436     0.05802
 Rotational constants (GHZ):           3.69461     1.75771     1.20894
 Zero-point vibrational energy     375445.2 (Joules/Mol)
                                   89.73357 (Kcal/Mol)
 Warning -- explicit consideration of  10 degrees of freedom as
           vibrations may cause significant error
 Vibrational temperatures:     57.57    77.92   274.74   313.95   369.47
          (Kelvin)            552.36   676.54   727.24   740.65   783.32
                              998.71  1065.21  1136.68  1315.31  1329.63
                             1411.52  1442.95  1446.46  1512.33  1518.25
                             1528.34  1598.00  1687.92  1807.24  1848.77
                             1888.94  2021.33  2025.58  2056.89  2120.49
                             2122.93  2125.44  2146.32  2152.38  2312.45
                             2405.07  4409.50  4411.67  4504.62  4505.11
                             4536.70  4539.12  4586.24  4593.41  4626.09

 Zero-point correction=                           0.143000 (Hartree/Particle)
 Thermal correction to Energy=                    0.151025
 Thermal correction to Enthalpy=                  0.151969
 Thermal correction to Gibbs Free Energy=         0.108920
 Sum of electronic and zero-point Energies=           -309.992693
 Sum of electronic and thermal Energies=              -309.984668
 Sum of electronic and thermal Enthalpies=            -309.983724
 Sum of electronic and thermal Free Energies=         -310.026773

                     E (Thermal)             CV                S
                      KCal/Mol        Cal/Mol-Kelvin    Cal/Mol-Kelvin
 Total                   94.770             28.833             90.605
 Electronic               0.000              0.000              1.377
 Translational            0.889              2.981             39.865
 Rotational               0.889              2.981             28.106
 Vibrational             92.992             22.871             21.256
 Vibration     1          0.594              1.981              5.259
 Vibration     2          0.596              1.976              4.660
 Vibration     3          0.634              1.852              2.219
 Vibration     4          0.646              1.813              1.974
 Vibration     5          0.666              1.751              1.683
 Vibration     6          0.753              1.505              1.024
 Vibration     7          0.827              1.316              0.737
 Vibration     8          0.861              1.238              0.645
 Vibration     9          0.870              1.217              0.622
 Vibration    10          0.900              1.152              0.556

 Optimization completed.
    -- Stationary point found.
 Normal termination of Gaussian 16 at Wed May 14 13:16:39 2025.
