 Gaussian 16, Revision C.01,
 Gaussian 16:  AS64L-G16RevC.01  3-Jul-2019

 ----------------------------------------------------------------------
 # opt=calcfc freq 6-311+g(d,p) scrf=(smd,solvent=thf) nosymm scf=(qc,f
 ermi,xqc,maxcycle=512) geom=connectivity int=ultrafine m062x
 ----------------------------------------------------------------------

 ----------------------------------------------
 2-6-diMe-ph-anion-opt-freq-thf-non-tight-2-512
 ----------------------------------------------
 Symbolic Z-matrix:
 Charge = -1 Multiplicity = 1

 SCF Done:  E(RM062X) =  -310.241413307     A.U. after   16 cycles
 SCF Done:  E(RM062X) =  -310.254285091     A.U. after   14 cycles
 SCF Done:  E(RM062X) =  -310.254797774     A.U. after   14 cycles
 SCF Done:  E(RM062X) =  -310.254662727     A.U. after   13 cycles
 SCF Done:  E(RM062X) =  -310.223340095     A.U. after   19 cycles
 SCF Done:  E(RM062X) =  -310.254844450     A.U. after   11 cycles
 SCF Done:  E(RM062X) =  -310.254852428     A.U. after   11 cycles
 SCF Done:  E(RM062X) =  -310.254853566     A.U. after    9 cycles
 SCF Done:  E(RM062X) =  -310.254853721     A.U. after    9 cycles
 SCF Done:  E(RM062X) =  -310.254853774     A.U. after    9 cycles
 Optimization completed.
    -- Stationary point found.
 Normal termination of Gaussian 16 at Fri May 30 05:21:32 2025.

 ----------------------------------------------------------------------
 #N Geom=AllCheck Guess=TCheck SCRF=Check GenChk RM062X/6-311+G(d,p) Fr
 eq
 ----------------------------------------------------------------------

 Structure from the checkpoint file:  "2-6-diMe-ph-anion-opt-freq-thf-non-tight-2-512.chk"
 ----------------------------------------------
 2-6-diMe-ph-anion-opt-freq-thf-non-tight-2-512
 ----------------------------------------------
 Charge = -1 Multiplicity = 1

                          Input orientation:
 ---------------------------------------------------------------------
 Center     Atomic      Atomic             Coordinates (Angstroms)
 Number     Number       Type             X           Y           Z
 ---------------------------------------------------------------------
      1          6           0        6.292670    6.959246    5.166907
      2          6           0        5.153647    6.122146    5.208981
      3          6           0        3.906498    6.506568    4.692840
      4          1           0        3.057319    5.828276    4.748333
      5          6           0        3.746280    7.758520    4.103937
      6          6           0        4.841717    8.615910    4.038549
      7          1           0        4.728130    9.595868    3.579139
      8          6           0        6.082763    8.219203    4.559823
      9          1           0        2.784011    8.060687    3.702034
     10          6           0        7.241005    9.195226    4.466738
     11          1           0        7.590313    9.475292    5.465437
     12          1           0        8.091329    8.735665    3.954263
     13          1           0        6.971775   10.111092    3.932031
     14          6           0        5.272744    4.746352    5.838889
     15          1           0        6.041834    4.155994    5.331901
     16          1           0        5.577666    4.826830    6.886681
     17          1           0        4.332261    4.188412    5.799648
 ---------------------------------------------------------------------

 SCF Done:  E(RM062X) =  -310.254853774     A.U. after    1 cycles

 Alpha  occ. eigenvalues --  -10.49838 -10.49463 -10.49457 -10.49384 -10.49378
 Alpha  occ. eigenvalues --  -10.48879 -10.48878 -10.44129  -0.90744  -0.82910
 Alpha  occ. eigenvalues --   -0.80271  -0.72511  -0.72102  -0.61586  -0.59327
 Alpha  occ. eigenvalues --   -0.51920  -0.48582  -0.45335  -0.44904  -0.43748
 Alpha  occ. eigenvalues --   -0.42847  -0.41914  -0.38914  -0.37707  -0.37015
 Alpha  occ. eigenvalues --   -0.33207  -0.24931  -0.23993  -0.19089
 Alpha virt. eigenvalues --    0.03746   0.04857   0.05495   0.05931   0.06091
 Alpha virt. eigenvalues --    0.06706   0.07179   0.08124   0.08777   0.09575
 Alpha virt. eigenvalues --    0.09887   0.09929   0.10953   0.11200   0.13338

 Mulliken charges:
               1
     1  C   -0.901140
     2  C    0.779920
     3  C   -0.820792
     4  H    0.158161
     5  C   -0.278011
     6  C   -0.816301
     7  H    0.158188
     8  C    0.785949
     9  H    0.161866
    10  C   -0.620207
    11  H    0.178753
    12  H    0.175502
    13  H    0.152239
    14  C   -0.620653
    15  H    0.176830
    16  H    0.177543
    17  H    0.152152
 Sum of Mulliken charges =  -1.00000

 Dipole moment (field-independent basis, Debye):
    X=            -30.1994    Y=            -33.4300    Z=            -24.7992  Tot=             51.4254
 Quadrupole moment (field-independent basis, Debye-Ang):
   XX=           -248.4030   YY=           -287.2961   ZZ=           -185.2712
   XY=           -208.3973   XZ=           -157.0921   YZ=           -173.1808

  Exact polarizability:     169.692       4.743     158.658      17.711     -23.968     115.675
 Approx polarizability:     144.793       4.189     137.957      12.738     -18.140     104.812

                      1                      2                      3
                      A                      A                      A
 Frequencies --     67.1261                82.2358               191.7578
 Red. masses --      1.0395                 1.0535                 3.1839
 Frc consts  --      0.0028                 0.0042                 0.0690
 IR Inten    --      1.5712                 3.1650                45.6942

                      4                      5                      6
                      A                      A                      A
 Frequencies --    198.3774               295.0936               431.9416
 Red. masses --      2.8524                 2.5303                 2.5839
 Frc consts  --      0.0661                 0.1298                 0.2840
 IR Inten    --      0.3162                 9.0372                 9.7715

                      7                      8                      9
                      A                      A                      A
 Frequencies --    447.6724               529.5794               530.8319
 Red. masses --      3.6044                 5.0806                 5.3102
 Frc consts  --      0.4256                 0.8395                 0.8816
 IR Inten    --      3.2501                 0.4621                 2.3871

                     10                     11                     12
                      A                      A                      A
 Frequencies --    545.3246               715.2445               735.0191
 Red. masses --      2.9599                 2.4290                 5.6191
 Frc consts  --      0.5186                 0.7321                 1.7886
 IR Inten    --      0.0038                 9.9794                 0.1251

                     13                     14                     15
                      A                      A                      A
 Frequencies --    775.4920               904.2173               907.1315
 Red. masses --      1.4171                 1.3409                 2.7763
 Frc consts  --      0.5021                 0.6459                 1.3461
 IR Inten    --     69.7916                 0.0514                 8.0372

                     16                     17                     18
                      A                      A                      A
 Frequencies --    975.3408               983.0808              1002.4768
 Red. masses --      1.3000                 3.8741                 1.7009
 Frc consts  --      0.7286                 2.2060                 1.0071
 IR Inten    --      0.0128                 3.5094                 0.0149

                     19                     20                     21
                      A                      A                      A
 Frequencies --   1028.1407              1047.1608              1054.8516
 Red. masses --      1.7260                 1.5208                 1.5419
 Frc consts  --      1.0749                 0.9825                 1.0109
 IR Inten    --      4.7496                12.5776                 0.1769

                     22                     23                     24
                      A                      A                      A
 Frequencies --   1119.4731              1162.5561              1230.9246
 Red. masses --      1.5005                 1.2118                 1.9010
 Frc consts  --      1.1079                 0.9649                 1.6971
 IR Inten    --     13.0790                 0.5450                27.0232

                     25                     26                     27
                      A                      A                      A
 Frequencies --   1246.4939              1280.2969              1396.3559
 Red. masses --      3.9212                 4.7448                 1.2730
 Frc consts  --      3.5897                 4.5823                 1.4624
 IR Inten    --      4.6194                24.8923                 3.4803

                     28                     29                     30
                      A                      A                      A
 Frequencies --   1399.3669              1402.5483              1458.0178
 Red. masses --      1.3191                 2.9311                 1.9554
 Frc consts  --      1.5220                 3.3972                 2.4492
 IR Inten    --      5.6050                 0.1062                41.9388

                     31                     32                     33
                      A                      A                      A
 Frequencies --   1470.5513              1471.3904              1486.4290
 Red. masses --      1.0518                 1.0452                 1.1661
 Frc consts  --      1.3401                 1.3333                 1.5180
 IR Inten    --     21.9279                 3.6740                28.1146

                     34                     35                     36
                      A                      A                      A
 Frequencies --   1487.4752              1605.5363              1611.3715
 Red. masses --      1.1066                 6.4490                 4.8971
 Frc consts  --      1.4425                 9.7945                 7.4916
 IR Inten    --     15.7435                48.0962                 0.8062

                     37                     38                     39
                      A                      A                      A
 Frequencies --   3041.1797              3041.8975              3105.8228
 Red. masses --      1.0357                 1.0357                 1.1013
 Frc consts  --      5.6437                 5.6464                 6.2593
 IR Inten    --    108.3070                11.7662                14.5500

                     40                     41                     42
                      A                      A                      A
 Frequencies --   3106.2571              3112.9792              3113.2014
 Red. masses --      1.1011                 1.1026                 1.1025
 Frc consts  --      6.2599                 6.2953                 6.2959
 IR Inten    --     44.8905                28.0794                51.3206

                     43                     44                     45
                      A                      A                      A
 Frequencies --   3149.3330              3153.6097              3191.2717
 Red. masses --      1.0863                 1.0903                 1.0957
 Frc consts  --      6.3483                 6.3888                 6.5743
 IR Inten    --     18.8692                79.6638                50.7340

 - Thermochemistry -
 -------------------
 Temperature   298.150 Kelvin.  Pressure   1.00000 Atm.
 Atom     1 has atomic number  6 and mass  12.00000

 Molecular mass:   105.07043 amu.
 Principal axes and moments of inertia in atomic units:
                           1         2         3
     Eigenvalues --   491.719051016.999741486.53226
           X            0.38946   0.88638  -0.25031
           Y            0.88004  -0.27792   0.38509
           Z           -0.27177   0.37026   0.88828
 This molecule is an asymmetric top.
 Rotational symmetry number  1.
 Warning -- assumption of classical behavior for rotation
           may cause significant error
 Rotational temperatures (Kelvin)      0.17615     0.08517     0.05827
 Rotational constants (GHZ):           3.67027     1.77457     1.21406
 Zero-point vibrational energy     372591.5 (Joules/Mol)
                                   89.05151 (Kcal/Mol)
 Warning -- explicit consideration of  10 degrees of freedom as
           vibrations may cause significant error
 Vibrational temperatures:     96.58   118.32   275.90   285.42   424.57
          (Kelvin)            621.47   644.10   761.95   763.75   784.60
                             1029.08  1057.53  1115.76  1300.97  1305.16
                             1403.30  1414.43  1442.34  1479.27  1506.63
                             1517.70  1610.67  1672.66  1771.03  1793.43
                             1842.06  2009.04  2013.38  2017.95  2097.76
                             2115.80  2117.00  2138.64  2140.15  2310.01
                             2318.40  4375.58  4376.61  4468.59  4469.21
                             4478.88  4479.20  4531.19  4537.34  4591.53

 Zero-point correction=                           0.141913 (Hartree/Particle)
 Thermal correction to Energy=                    0.149767
 Thermal correction to Enthalpy=                  0.150712
 Thermal correction to Gibbs Free Energy=         0.109303
 Sum of electronic and zero-point Energies=           -310.112941
 Sum of electronic and thermal Energies=              -310.105086
 Sum of electronic and thermal Enthalpies=            -310.104142
 Sum of electronic and thermal Free Energies=         -310.145551

                     E (Thermal)             CV                S
                      KCal/Mol        Cal/Mol-Kelvin    Cal/Mol-Kelvin
 Total                   93.980             28.810             87.152
 Electronic               0.000              0.000              0.000
 Translational            0.889              2.981             39.865
 Rotational               0.889              2.981             28.099
 Vibrational             92.203             22.848             19.188
 Vibration     1          0.598              1.970              4.236
 Vibration     2          0.600              1.961              3.837
 Vibration     3          0.634              1.851              2.211
 Vibration     4          0.637              1.842              2.148
 Vibration     5          0.689              1.683              1.445
 Vibration     6          0.793              1.401              0.852
 Vibration     7          0.807              1.366              0.803
 Vibration     8          0.885              1.185              0.588
 Vibration     9          0.886              1.182              0.585
 Vibration    10          0.900              1.150              0.554

 Optimization completed.
    -- Stationary point found.
 Normal termination of Gaussian 16 at Fri May 30 05:22:43 2025.
