 Gaussian 16, Revision C.01,
 Gaussian 16:  AS64L-G16RevC.01  3-Jul-2019

 ----------------------------------------------------------------------
 # opt=(calcfc,tight) freq 6-311+g(d,p) nosymm scf=(qc,fermi,xqc) geom=
 connectivity int=ultrafine m062x
 ----------------------------------------------------------------------

 ----------------------
 2-br-phboh2-opt-freq-2
 ----------------------
 Symbolic Z-matrix:
 Charge =  0 Multiplicity = 1

 SCF Done:  E(RM062X) =  -2981.79253278     A.U. after   15 cycles
 SCF Done:  E(RM062X) =  -2981.79253278     A.U. after    6 cycles
 Optimization completed.
    -- Stationary point found.
 Normal termination of Gaussian 16 at Mon May  5 07:40:12 2025.

 ----------------------------------------------------------------------
 #N Geom=AllCheck Guess=TCheck SCRF=Check GenChk RM062X/6-311+G(d,p) Fr
 eq
 ----------------------------------------------------------------------

 Structure from the checkpoint file:  "2-br-phboh2-opt-freq-2.chk"
 ----------------------
 2-br-phboh2-opt-freq-2
 ----------------------
 Charge =  0 Multiplicity = 1

                          Input orientation:
 ---------------------------------------------------------------------
 Center     Atomic      Atomic             Coordinates (Angstroms)
 Number     Number       Type             X           Y           Z
 ---------------------------------------------------------------------
      1          8           0        8.409269    7.532848    6.494926
      2          1           0        9.215363    7.140941    6.844760
      3          6           0        6.279243    7.066175    5.180163
      4          5           0        7.647358    6.630792    5.831842
      5          8           0        8.053198    5.324092    5.804607
      6          1           0        7.496482    4.759987    5.263733
      7          6           0        5.125620    6.342801    5.515672
      8          1           0        5.210994    5.507027    6.204057
      9          6           0        3.873880    6.678931    5.014702
     10          1           0        3.000219    6.107800    5.303840
     11          6           0        3.752340    7.753124    4.141269
     12          6           0        4.876770    8.482477    3.772194
     13          1           0        4.796332    9.312784    3.082743
     14          6           0        6.115753    8.134347    4.296445
     15          1           0        2.784039    8.026157    3.739119
     16         35           0        7.625433    9.145651    3.720985
 ---------------------------------------------------------------------

 SCF Done:  E(RM062X) =  -2981.79253278     A.U. after    1 cycles

 Alpha  occ. eigenvalues -- -485.33116 -63.32308 -57.15055 -57.14800 -57.14788
 Alpha  occ. eigenvalues --  -19.64564 -19.63621 -10.61098 -10.56429 -10.56269
 Alpha  occ. eigenvalues --  -10.56186 -10.55822 -10.55038  -9.01028  -7.09559
 Alpha  occ. eigenvalues --   -6.83826  -6.82802  -6.82768  -2.86982  -2.86631
 Alpha  occ. eigenvalues --   -2.86597  -2.85689  -2.85688  -1.17578  -1.13890
 Alpha  occ. eigenvalues --   -0.98739  -0.90463  -0.86367  -0.82046  -0.71257
 Alpha  occ. eigenvalues --   -0.69103  -0.65993  -0.63405  -0.59767  -0.54914
 Alpha  occ. eigenvalues --   -0.53774  -0.51720  -0.49231  -0.48160  -0.46565
 Alpha  occ. eigenvalues --   -0.46296  -0.45888  -0.41702  -0.41083  -0.39569
 Alpha  occ. eigenvalues --   -0.37874  -0.34417  -0.32621  -0.30028
 Alpha virt. eigenvalues --   -0.00869  -0.00533   0.00030   0.01325   0.01780
 Alpha virt. eigenvalues --    0.02242   0.02833   0.03817   0.04553   0.05069
 Alpha virt. eigenvalues --    0.06150   0.06673   0.07632   0.07862   0.08759

 Mulliken charges:
               1
     1  O   -0.282960
     2  H    0.282568
     3  C   -0.844126
     4  B    0.357513
     5  O   -0.311260
     6  H    0.267569
     7  C    0.032911
     8  H    0.162379
     9  C   -0.202855
    10  H    0.161981
    11  C   -0.066645
    12  C   -0.164635
    13  H    0.179775
    14  C    0.447658
    15  H    0.167151
    16  Br  -0.187023
 Sum of Mulliken charges =   0.00000

 Dipole moment (field-independent basis, Debye):
    X=             -1.7191    Y=             -2.0477    Z=             -0.0875  Tot=              2.6751
 Quadrupole moment (field-independent basis, Debye-Ang):
   XX=            -84.4886   YY=            -99.1151   ZZ=            -72.2089
   XY=            -26.0255   XZ=             -6.1189   YZ=            -13.3231

  Exact polarizability:     128.146      11.826     101.506       4.638     -22.298      83.700
 Approx polarizability:     155.798      14.295     129.821       3.975     -27.044     107.978

                      1                      2                      3
                      A                      A                      A
 Frequencies --     28.1881                97.0171               119.9203
 Red. masses --      7.3276                 4.4819                 9.2884
 Frc consts  --      0.0034                 0.0249                 0.0787
 IR Inten    --      0.9518                 0.4795                 0.1271

                      4                      5                      6
                      A                      A                      A
 Frequencies --    168.2752               243.0451               288.8694
 Red. masses --      5.3070                 5.5664                 8.4309
 Frc consts  --      0.0885                 0.1937                 0.4145
 IR Inten    --      1.8058                 1.0966                 0.8377

                      7                      8                      9
                      A                      A                      A
 Frequencies --    362.5579               363.2207               455.9491
 Red. masses --      6.7244                 4.1178                 3.4688
 Frc consts  --      0.5208                 0.3201                 0.4249
 IR Inten    --     10.6486                 4.8355                11.1129

                     10                     11                     12
                      A                      A                      A
 Frequencies --    524.0285               536.7118               543.6902
 Red. masses --      2.0791                 1.4945                 4.0172
 Frc consts  --      0.3364                 0.2536                 0.6997
 IR Inten    --     57.3511               109.6134                26.7303

                     13                     14                     15
                      A                      A                      A
 Frequencies --    583.4295               668.7710               677.2889
 Red. masses --      1.2482                 6.3848                 4.9077
 Frc consts  --      0.2503                 1.6825                 1.3264
 IR Inten    --      4.5747                 2.4858                71.5479

                     16                     17                     18
                      A                      A                      A
 Frequencies --    745.7629               750.8961               776.7942
 Red. masses --      5.0170                 5.6344                 1.2542
 Frc consts  --      1.6440                 1.8718                 0.4459
 IR Inten    --     13.1610                18.9494                54.3754

                     19                     20                     21
                      A                      A                      A
 Frequencies --    899.7946               984.0497              1008.0221
 Red. masses --      1.3192                 1.3686                 1.8268
 Frc consts  --      0.6293                 0.7808                 1.0937
 IR Inten    --      0.2402                 1.7491                73.6977

                     22                     23                     24
                      A                      A                      A
 Frequencies --   1018.2839              1034.8025              1044.1397
 Red. masses --      1.3145                 1.4912                 3.3100
 Frc consts  --      0.8030                 0.9408                 2.1262
 IR Inten    --      0.8825               119.9829                96.5154

                     25                     26                     27
                      A                      A                      A
 Frequencies --   1071.5184              1145.6709              1154.9228
 Red. masses --      2.5352                 1.9931                 1.7547
 Frc consts  --      1.7150                 1.5414                 1.3790
 IR Inten    --      7.9320                24.4910                24.5228

                     28                     29                     30
                      A                      A                      A
 Frequencies --   1182.3907              1282.2712              1299.6958
 Red. masses --      1.1432                 1.7528                 3.4688
 Frc consts  --      0.9416                 1.6980                 3.4524
 IR Inten    --      0.2681                 5.1575                17.5507

                     31                     32                     33
                      A                      A                      A
 Frequencies --   1377.7525              1434.9856              1468.5495
 Red. masses --      4.1368                 4.2760                 2.6396
 Frc consts  --      4.6265                 5.1878                 3.3540
 IR Inten    --    393.7718               216.0127               151.3722

                     34                     35                     36
                      A                      A                      A
 Frequencies --   1516.2509              1630.3273              1664.7902
 Red. masses --      2.7834                 5.7380                 6.6086
 Frc consts  --      3.7702                 8.9858                10.7914
 IR Inten    --     26.5448                21.1603                35.3333

                     37                     38                     39
                      A                      A                      A
 Frequencies --   3182.4852              3210.4101              3225.1957
 Red. masses --      1.0892                 1.0885                 1.0947
 Frc consts  --      6.4998                 6.6097                 6.7088
 IR Inten    --      5.5617                 2.8316                 6.0535

                     40                     41                     42
                      A                      A                      A
 Frequencies --   3235.4320              3898.1626              3934.5549
 Red. masses --      1.0968                 1.0651                 1.0663
 Frc consts  --      6.7646                 9.5357                 9.7253
 IR Inten    --      2.5793               104.1609                72.8565

 - Thermochemistry -
 -------------------
 Temperature   298.150 Kelvin.  Pressure   1.00000 Atm.
 Atom     1 has atomic number  8 and mass  15.99491

 Molecular mass:   199.96442 amu.
 Principal axes and moments of inertia in atomic units:
                           1         2         3
     Eigenvalues --  1686.102141991.828593463.06002
           X            0.69892   0.69398  -0.17294
           Y            0.63519  -0.49118   0.59605
           Z           -0.32871   0.52644   0.78410
 This molecule is an asymmetric top.
 Rotational symmetry number  1.
 Warning -- assumption of classical behavior for rotation
           may cause significant error
 Rotational temperatures (Kelvin)      0.05137     0.04348     0.02501
 Rotational constants (GHZ):           1.07036     0.90607     0.52114
 Zero-point vibrational energy     304084.0 (Joules/Mol)
                                   72.67782 (Kcal/Mol)
 Warning -- explicit consideration of  13 degrees of freedom as
           vibrations may cause significant error
 Vibrational temperatures:     40.56   139.59   172.54   242.11   349.69
          (Kelvin)            415.62   521.64   522.59   656.01   753.96
                              772.21   782.25   839.42   962.21   974.47
                             1072.99  1080.37  1117.63  1294.60  1415.83
                             1450.32  1465.08  1488.85  1502.28  1541.68
                             1648.36  1661.68  1701.20  1844.90  1869.97
                             1982.28  2064.62  2112.92  2181.55  2345.68
                             2395.26  4578.89  4619.06  4640.34  4655.06
                             5608.59  5660.95

 Zero-point correction=                           0.115819 (Hartree/Particle)
 Thermal correction to Energy=                    0.125125
 Thermal correction to Enthalpy=                  0.126069
 Thermal correction to Gibbs Free Energy=         0.079296
 Sum of electronic and zero-point Energies=          -2981.676713
 Sum of electronic and thermal Energies=             -2981.667408
 Sum of electronic and thermal Enthalpies=           -2981.666464
 Sum of electronic and thermal Free Energies=        -2981.713237

                     E (Thermal)             CV                S
                      KCal/Mol        Cal/Mol-Kelvin    Cal/Mol-Kelvin
 Total                   78.517             34.195             98.441
 Electronic               0.000              0.000              0.000
 Translational            0.889              2.981             41.784
 Rotational               0.889              2.981             30.832
 Vibrational             76.739             28.234             25.826
 Vibration     1          0.593              1.984              5.953
 Vibration     2          0.603              1.951              3.513
 Vibration     3          0.609              1.933              3.102
 Vibration     4          0.625              1.882              2.455
 Vibration     5          0.659              1.774              1.780
 Vibration     6          0.685              1.694              1.481
 Vibration     7          0.736              1.549              1.111
 Vibration     8          0.737              1.548              1.108
 Vibration     9          0.814              1.348              0.778
 Vibration    10          0.879              1.197              0.601
 Vibration    11          0.892              1.169              0.572
 Vibration    12          0.899              1.154              0.557
 Vibration    13          0.940              1.067              0.479

 Optimization completed.
    -- Stationary point found.
 Normal termination of Gaussian 16 at Mon May  5 07:41:32 2025.
