 Gaussian 16, Revision C.01,
 Gaussian 16:  AS64L-G16RevC.01  3-Jul-2019

 ----------------------------------------------------------------------
 # opt=(calcfc,tight) freq 6-311+g(d,p) scrf=(smd,solvent=thf) nosymm s
 cf=(qc,fermi,xqc) geom=connectivity int=ultrafine m062x
 ----------------------------------------------------------------------

 --------------------
 2-br-ph-opt-freq-thf
 --------------------
 Symbolic Z-matrix:
 Charge =  0 Multiplicity = 2

 SCF Done:  E(UM062X) =  -2805.08632790     A.U. after   17 cycles
 SCF Done:  E(UM062X) =  -2805.09355404     A.U. after   16 cycles
 SCF Done:  E(UM062X) =  -2805.09362349     A.U. after   13 cycles
 SCF Done:  E(UM062X) =  -2805.09362418     A.U. after   11 cycles
 SCF Done:  E(UM062X) =  -2805.09362419     A.U. after    8 cycles
 Optimization completed.
    -- Stationary point found.
 Normal termination of Gaussian 16 at Sun May 11 04:12:08 2025.

 ----------------------------------------------------------------------
 #N Geom=AllCheck Guess=TCheck SCRF=Check GenChk UM062X/6-311+G(d,p) Fr
 eq
 ----------------------------------------------------------------------

 Structure from the checkpoint file:  "2-br-ph-opt-freq-thf.chk"
 --------------------
 2-br-ph-opt-freq-thf
 --------------------
 Charge =  0 Multiplicity = 2

                          Input orientation:
 ---------------------------------------------------------------------
 Center     Atomic      Atomic             Coordinates (Angstroms)
 Number     Number       Type             X           Y           Z
 ---------------------------------------------------------------------
      1          6           0        6.161091    7.062895    5.148753
      2          6           0        5.468906    6.026001    4.574719
      3          1           0        5.852675    5.012189    4.570691
      4          6           0        4.236934    6.340007    3.991417
      5          1           0        3.650156    5.557276    3.524735
      6          6           0        3.766183    7.651318    4.009508
      7          6           0        4.503410    8.673357    4.603754
      8          1           0        4.133191    9.691838    4.614964
      9          6           0        5.730681    8.359695    5.185722
     10          1           0        2.811177    7.887340    3.555403
     11         35           0        6.793919    9.700968    6.019485
 ---------------------------------------------------------------------

 SCF Done:  E(UM062X) =  -2805.09362419     A.U. after    1 cycles

 Alpha  occ. eigenvalues -- -485.34219 -63.33397 -57.16160 -57.15882 -57.15882
 Alpha  occ. eigenvalues --  -10.61294 -10.58536 -10.56550 -10.56262 -10.55899
 Alpha  occ. eigenvalues --  -10.55545  -9.02118  -6.84946  -6.83863  -6.83861
 Alpha  occ. eigenvalues --   -2.88085  -2.87713  -2.87705  -2.86760  -2.86759
 Alpha  occ. eigenvalues --   -0.99516  -0.90996  -0.86133  -0.82698  -0.70661
 Alpha  occ. eigenvalues --   -0.68270  -0.59427  -0.54539  -0.52970  -0.49404
 Alpha  occ. eigenvalues --   -0.47558  -0.46544  -0.42557  -0.38412  -0.35688
 Alpha  occ. eigenvalues --   -0.33119  -0.32303  -0.30693
 Alpha virt. eigenvalues --    0.00015   0.00614   0.01059   0.01803   0.03273
 Alpha virt. eigenvalues --    0.03650   0.04906   0.05356   0.06141   0.06617
 Alpha virt. eigenvalues --    0.07873   0.08187   0.09414   0.09712   0.10993

  Beta  occ. eigenvalues -- -485.34199 -63.33388 -57.16128 -57.15880 -57.15871
  Beta  occ. eigenvalues --  -10.61324 -10.57550 -10.56494 -10.56275 -10.55820
  Beta  occ. eigenvalues --  -10.55572  -9.02093  -6.84880  -6.83859  -6.83842
  Beta  occ. eigenvalues --   -2.88049  -2.87687  -2.87671  -2.86753  -2.86752
  Beta  occ. eigenvalues --   -0.98654  -0.90749  -0.85106  -0.81892  -0.69879
  Beta  occ. eigenvalues --   -0.67156  -0.58418  -0.53751  -0.52291  -0.48993
  Beta  occ. eigenvalues --   -0.46852  -0.45014  -0.42068  -0.38454  -0.35512
  Beta  occ. eigenvalues --   -0.32164  -0.30247
  Beta virt. eigenvalues --   -0.06879  -0.00033   0.00891   0.01696   0.01970
  Beta virt. eigenvalues --    0.03397   0.03738   0.04865   0.05415   0.06134
  Beta virt. eigenvalues --    0.06600   0.07965   0.08326   0.09165   0.09979

 Mulliken charges and spin densities:
               1          2
     1  C    0.093134   0.804262
     2  C   -0.391833   0.089049
     3  H    0.212770   0.018976
     4  C   -0.180827   0.028356
     5  H    0.203151   0.004546
     6  C   -0.179605  -0.035250
     7  C   -0.404183   0.019623
     8  H    0.211266   0.005917
     9  C    0.396043   0.024820
    10  H    0.203677   0.002598
    11  Br  -0.163594   0.037103
 Sum of Mulliken charges =   0.00000   1.00000

 Dipole moment (field-independent basis, Debye):
    X=             -2.2866    Y=             -1.4826    Z=             -1.5043  Tot=              3.1128
 Quadrupole moment (field-independent basis, Debye-Ang):
   XX=            -76.2635   YY=            -71.3404   ZZ=            -70.4226
   XY=            -27.2384   XZ=            -16.5607   YZ=            -17.8776

  Exact polarizability:     110.212      10.220     131.422      26.967      19.330      81.016
 Approx polarizability:     109.526       6.555     128.201      24.675      16.255      81.414

                      1                      2                      3
                      A                      A                      A
 Frequencies --    166.8153               239.7983               319.7109
 Red. masses --      5.5681                 6.0100                12.0212
 Frc consts  --      0.0913                 0.2036                 0.7240
 IR Inten    --      2.6081                 0.1799                 2.6299

                      4                      5                      6
                      A                      A                      A
 Frequencies --    415.2250               478.3769               615.6272
 Red. masses --      3.1706                 4.2284                 7.1618
 Frc consts  --      0.3221                 0.5701                 1.5992
 IR Inten    --      7.6239                 2.0886                 1.0827

                      7                      8                      9
                      A                      A                      A
 Frequencies --    672.9687               679.8956               757.9308
 Red. masses --      7.0533                 4.3603                 1.1939
 Frc consts  --      1.8820                 1.1875                 0.4041
 IR Inten    --     37.3480                 0.0590               130.9888

                     10                     11                     12
                      A                      A                      A
 Frequencies --    870.3254               970.8485               974.6103
 Red. masses --      1.3016                 1.3678                 7.2769
 Frc consts  --      0.5809                 0.7596                 4.0725
 IR Inten    --      0.7063                 1.5070                21.7659

                     13                     14                     15
                      A                      A                      A
 Frequencies --   1013.7726              1045.5723              1101.3625
 Red. masses --      1.3134                 2.6886                 2.6122
 Frc consts  --      0.7953                 1.7317                 1.8669
 IR Inten    --      0.0051                14.1918                29.3129

                     16                     17                     18
                      A                      A                      A
 Frequencies --   1129.1047              1166.9889              1248.7507
 Red. masses --      1.4874                 1.1333                 1.5764
 Frc consts  --      1.1172                 0.9094                 1.4483
 IR Inten    --      7.1979                 1.8277                 3.5514

                     19                     20                     21
                      A                      A                      A
 Frequencies --   1314.0657              1453.0938              1465.8250
 Red. masses --      4.1329                 2.3185                 2.2936
 Frc consts  --      4.2047                 2.8843                 2.9036
 IR Inten    --      1.3848                12.6050                48.4022

                     22                     23                     24
                      A                      A                      A
 Frequencies --   1596.7960              1655.5886              3206.3833
 Red. masses --      5.7141                 7.5332                 1.0872
 Frc consts  --      8.5842                12.1656                 6.5853
 IR Inten    --      5.4652                 9.1114                 1.3603

                     25                     26                     27
                      A                      A                      A
 Frequencies --   3213.1619              3220.0819              3229.8023
 Red. masses --      1.0904                 1.0947                 1.0986
 Frc consts  --      6.6327                 6.6878                 6.7524
 IR Inten    --      0.7078                 0.2585                 2.1676

 - Thermochemistry -
 -------------------
 Temperature   298.150 Kelvin.  Pressure   1.00000 Atm.
 Atom     1 has atomic number  6 and mass  12.00000

 Molecular mass:   154.94964 amu.
 Principal axes and moments of inertia in atomic units:
                           1         2         3
     Eigenvalues --   296.881521833.335562130.21663
           X            0.54931   0.69870  -0.45835
           Y            0.71394  -0.67745  -0.17708
           Z            0.43423   0.22996   0.87095
 This molecule is an asymmetric top.
 Rotational symmetry number  1.
 Rotational temperatures (Kelvin)      0.29175     0.04724     0.04066
 Rotational constants (GHZ):           6.07899     0.98440     0.84721
 Zero-point vibrational energy     204695.9 (Joules/Mol)
                                   48.92350 (Kcal/Mol)
 Warning -- explicit consideration of   6 degrees of freedom as
           vibrations may cause significant error
 Vibrational temperatures:    240.01   345.02   459.99   597.42   688.28
          (Kelvin)            885.75   968.25   978.22  1090.49  1252.20
                             1396.83  1402.25  1458.59  1504.35  1584.62
                             1624.53  1679.04  1796.67  1890.65  2090.68
                             2109.00  2297.43  2382.02  4613.27  4623.02
                             4632.98  4646.97

 Zero-point correction=                           0.077965 (Hartree/Particle)
 Thermal correction to Energy=                    0.083648
 Thermal correction to Enthalpy=                  0.084592
 Thermal correction to Gibbs Free Energy=         0.046445
 Sum of electronic and zero-point Energies=          -2805.015660
 Sum of electronic and thermal Energies=             -2805.009976
 Sum of electronic and thermal Enthalpies=           -2805.009032
 Sum of electronic and thermal Free Energies=        -2805.047179

                     E (Thermal)             CV                S
                      KCal/Mol        Cal/Mol-Kelvin    Cal/Mol-Kelvin
 Total                   52.490             20.865             80.288
 Electronic               0.000              0.000              1.377
 Translational            0.889              2.981             41.023
 Rotational               0.889              2.981             28.541
 Vibrational             50.713             14.903              9.347
 Vibration     1          0.624              1.883              2.471
 Vibration     2          0.657              1.780              1.804
 Vibration     3          0.706              1.636              1.312
 Vibration     4          0.779              1.437              0.908
 Vibration     5          0.835              1.298              0.714
 Vibration     6          0.975              0.999              0.424

 Optimization completed.
    -- Stationary point found.
 Normal termination of Gaussian 16 at Sun May 11 04:13:11 2025.
