 Gaussian 16, Revision C.01,
 Gaussian 16:  AS64L-G16RevC.01  3-Jul-2019

 ----------------------------------------------------------------------
 # opt=(calcfc,tight) freq 6-311+g(d,p) scrf=(smd,solvent=thf) nosymm s
 cf=(qc,fermi,xqc) geom=connectivity int=ultrafine m062x
 ----------------------------------------------------------------------

 ------------------------
 2-br-phboh2-opt-freq-thf
 ------------------------
 Symbolic Z-matrix:
 Charge =  0 Multiplicity = 1

 SCF Done:  E(RM062X) =  -2981.78915768     A.U. after   14 cycles
 SCF Done:  E(RM062X) =  -2981.79400605     A.U. after   15 cycles
 SCF Done:  E(RM062X) =  -2981.79814030     A.U. after   14 cycles
 SCF Done:  E(RM062X) =  -2981.78568929     A.U. after   15 cycles
 SCF Done:  E(RM062X) =  -2981.80249964     A.U. after   14 cycles
 SCF Done:  E(RM062X) =  -2981.80198767     A.U. after   16 cycles
 SCF Done:  E(RM062X) =  -2981.80688063     A.U. after   13 cycles
 SCF Done:  E(RM062X) =  -2981.80717579     A.U. after   13 cycles
 SCF Done:  E(RM062X) =  -2981.80781242     A.U. after   13 cycles
 SCF Done:  E(RM062X) =  -2981.80790690     A.U. after   12 cycles
 SCF Done:  E(RM062X) =  -2981.79817049     A.U. after   15 cycles
 SCF Done:  E(RM062X) =  -2981.81106064     A.U. after   11 cycles
 SCF Done:  E(RM062X) =  -2981.81070901     A.U. after   13 cycles
 SCF Done:  E(RM062X) =  -2981.81105797     A.U. after   11 cycles
 SCF Done:  E(RM062X) =  -2981.81106431     A.U. after   10 cycles
 SCF Done:  E(RM062X) =  -2981.81106443     A.U. after    8 cycles
 SCF Done:  E(RM062X) =  -2981.81106444     A.U. after    7 cycles
 SCF Done:  E(RM062X) =  -2981.81106445     A.U. after    7 cycles
 SCF Done:  E(RM062X) =  -2981.81106445     A.U. after    6 cycles
 Optimization completed.
    -- Stationary point found.
 Normal termination of Gaussian 16 at Wed Apr 30 05:05:52 2025.

 ----------------------------------------------------------------------
 #N Geom=AllCheck Guess=TCheck SCRF=Check GenChk RM062X/6-311+G(d,p) Fr
 eq
 ----------------------------------------------------------------------

 Structure from the checkpoint file:  "2-br-phboh2-opt-freq-thf.chk"
 ------------------------
 2-br-phboh2-opt-freq-thf
 ------------------------
 Charge =  0 Multiplicity = 1

                          Input orientation:
 ---------------------------------------------------------------------
 Center     Atomic      Atomic             Coordinates (Angstroms)
 Number     Number       Type             X           Y           Z
 ---------------------------------------------------------------------
      1          8           0        7.858508    5.153852    5.684771
      2          1           0        8.707260    4.903547    6.067673
      3          6           0        6.258931    7.012027    5.188075
      4          5           0        7.627363    6.495076    5.794660
      5          8           0        8.585304    7.246976    6.402167
      6          1           0        8.377529    8.184621    6.457423
      7          6           0        5.452095    6.040548    4.568855
      8          1           0        5.811092    5.018489    4.550236
      9          6           0        4.228484    6.344538    3.988339
     10          1           0        3.640450    5.563207    3.521856
     11          6           0        3.764186    7.654660    4.009121
     12          6           0        4.525911    8.649380    4.610437
     13          1           0        4.172830    9.672486    4.631688
     14          6           0        5.746181    8.312838    5.183208
     15          1           0        2.811674    7.911621    3.560479
     16         35           0        6.696489    9.783089    5.986858
 ---------------------------------------------------------------------

 SCF Done:  E(RM062X) =  -2981.81106445     A.U. after    1 cycles

 Alpha  occ. eigenvalues -- -485.34870 -63.34074 -57.16808 -57.16569 -57.16563
 Alpha  occ. eigenvalues --  -19.63583 -19.63295 -10.61696 -10.56009 -10.55772
 Alpha  occ. eigenvalues --  -10.55519 -10.55069 -10.55020  -9.02797  -7.09275
 Alpha  occ. eigenvalues --   -6.85543  -6.84611  -6.84557  -2.88703  -2.88382
 Alpha  occ. eigenvalues --   -2.88343  -2.87512  -2.87508  -1.16995  -1.13221
 Alpha  occ. eigenvalues --   -0.98643  -0.90988  -0.85981  -0.82502  -0.70519
 Alpha  occ. eigenvalues --   -0.69321  -0.65592  -0.62503  -0.59079  -0.54139
 Alpha  occ. eigenvalues --   -0.52860  -0.51223  -0.48876  -0.48754  -0.46104
 Alpha  occ. eigenvalues --   -0.45906  -0.45527  -0.41286  -0.40726  -0.39628
 Alpha  occ. eigenvalues --   -0.38610  -0.36323  -0.32365  -0.30725
 Alpha virt. eigenvalues --   -0.01553   0.00206   0.00453   0.00936   0.01780
 Alpha virt. eigenvalues --    0.02920   0.03251   0.03912   0.04373   0.05425
 Alpha virt. eigenvalues --    0.05914   0.06971   0.07908   0.08064   0.08460

 Mulliken charges:
               1
     1  O   -0.393415
     2  H    0.333890
     3  C   -1.169664
     4  B    0.522971
     5  O   -0.353552
     6  H    0.234305
     7  C   -0.193455
     8  H    0.210734
     9  C   -0.212091
    10  H    0.195360
    11  C   -0.090673
    12  C   -0.376314
    13  H    0.206993
    14  C    1.123790
    15  H    0.201987
    16  Br  -0.240865
 Sum of Mulliken charges =   0.00000

 Dipole moment (field-independent basis, Debye):
    X=             -1.6937    Y=             -0.0493    Z=             -0.9551  Tot=              1.9450
 Quadrupole moment (field-independent basis, Debye-Ang):
   XX=            -84.3402   YY=            -67.9295   ZZ=            -81.5284
   XY=            -15.1421   XZ=             -9.4897   YZ=             -7.0605

  Exact polarizability:     144.100       1.427     155.952      35.480      16.721      98.524
 Approx polarizability:     138.825       1.679     153.828      29.980      15.303     100.744

                      1                      2                      3
                      A                      A                      A
 Frequencies --     21.0701               105.6797               178.0095
 Red. masses --      6.9748                 4.2472                10.8495
 Frc consts  --      0.0018                 0.0279                 0.2026
 IR Inten    --      1.7197                 0.0351                 3.4447

                      4                      5                      6
                      A                      A                      A
 Frequencies --    192.5848               255.2202               283.7651
 Red. masses --      5.2546                 5.8060                 9.5262
 Frc consts  --      0.1148                 0.2228                 0.4519
 IR Inten    --      2.4935                 5.3146                 6.5483

                      7                      8                      9
                      A                      A                      A
 Frequencies --    377.9832               412.7899               455.3652
 Red. masses --      6.3796                 2.9505                 5.9817
 Frc consts  --      0.5370                 0.2962                 0.7308
 IR Inten    --      2.6466                 7.2615                 7.5987

                     10                     11                     12
                      A                      A                      A
 Frequencies --    478.4857               507.1955               543.7860
 Red. masses --      3.7519                 1.1321                 4.0265
 Frc consts  --      0.5061                 0.1716                 0.7015
 IR Inten    --      8.3866               237.5299                61.9830

                     13                     14                     15
                      A                      A                      A
 Frequencies --    565.5515               651.8908               660.1695
 Red. masses --      1.2207                 4.3964                 6.4006
 Frc consts  --      0.2300                 1.1008                 1.6436
 IR Inten    --      1.2090                88.8559                20.8563

                     16                     17                     18
                      A                      A                      A
 Frequencies --    735.7839               748.5901               782.5625
 Red. masses --      4.7069                 5.9880                 1.2912
 Frc consts  --      1.5014                 1.9771                 0.4659
 IR Inten    --     50.3522                 4.9319                61.9429

                     19                     20                     21
                      A                      A                      A
 Frequencies --    902.9273              1000.8365              1005.7703
 Red. masses --      1.3119                 1.3639                 2.8719
 Frc consts  --      0.6302                 0.8049                 1.7117
 IR Inten    --      0.1844                 1.1287               163.3994

                     22                     23                     24
                      A                      A                      A
 Frequencies --   1030.1451              1035.7583              1044.2117
 Red. masses --      1.3231                 2.3165                 1.3703
 Frc consts  --      0.8273                 1.4642                 0.8803
 IR Inten    --      0.1256                64.6709               137.5485

                     25                     26                     27
                      A                      A                      A
 Frequencies --   1074.5734              1136.0822              1153.1915
 Red. masses --      2.6609                 2.0064                 1.7015
 Frc consts  --      1.8103                 1.5257                 1.3332
 IR Inten    --     24.8970                24.0698                29.8124

                     28                     29                     30
                      A                      A                      A
 Frequencies --   1178.1019              1281.0808              1299.6261
 Red. masses --      1.1129                 2.0205                 2.9589
 Frc consts  --      0.9100                 1.9538                 2.9445
 IR Inten    --      1.4217                 0.2357                10.1093

                     31                     32                     33
                      A                      A                      A
 Frequencies --   1364.9899              1405.4700              1465.0838
 Red. masses --      3.7796                 4.9646                 2.4814
 Frc consts  --      4.1491                 5.7780                 3.1381
 IR Inten    --    694.3792               330.3645               235.6743

                     34                     35                     36
                      A                      A                      A
 Frequencies --   1509.5022              1624.9239              1661.6366
 Red. masses --      2.6002                 5.6882                 6.7526
 Frc consts  --      3.4908                 8.8489                10.9849
 IR Inten    --     17.0831                37.9768                68.6354

                     37                     38                     39
                      A                      A                      A
 Frequencies --   3211.2342              3220.9620              3229.7112
 Red. masses --      1.0876                 1.0912                 1.0955
 Frc consts  --      6.6077                 6.6698                 6.7327
 IR Inten    --      1.3013                 1.0017                 4.0484

                     40                     41                     42
                      A                      A                      A
 Frequencies --   3236.2151              3852.8486              3864.7084
 Red. masses --      1.0977                 1.0651                 1.0657
 Frc consts  --      6.7733                 9.3153                 9.3782
 IR Inten    --      1.8828               274.8219               226.0209

 - Thermochemistry -
 -------------------
 Temperature   298.150 Kelvin.  Pressure   1.00000 Atm.
 Atom     1 has atomic number  8 and mass  15.99491

 Molecular mass:   199.96442 amu.
 Principal axes and moments of inertia in atomic units:
                           1         2         3
     Eigenvalues --  1624.022642040.681193664.30287
           X            0.23434   0.85899  -0.45522
           Y            0.92166  -0.34526  -0.17704
           Z            0.30924   0.37807   0.87260
 This molecule is an asymmetric top.
 Rotational symmetry number  1.
 Warning -- assumption of classical behavior for rotation
           may cause significant error
 Rotational temperatures (Kelvin)      0.05333     0.04244     0.02364
 Rotational constants (GHZ):           1.11128     0.88438     0.49252
 Zero-point vibrational energy     303528.9 (Joules/Mol)
                                   72.54516 (Kcal/Mol)
 Warning -- explicit consideration of  13 degrees of freedom as
           vibrations may cause significant error
 Vibrational temperatures:     30.32   152.05   256.12   277.09   367.20
          (Kelvin)            408.27   543.83   593.91   655.17   688.43
                              729.74   782.39   813.70   937.93   949.84
                             1058.63  1077.05  1125.93  1299.11  1439.98
                             1447.08  1482.15  1490.23  1502.39  1546.07
                             1634.57  1659.19  1695.03  1843.19  1869.87
                             1963.92  2022.16  2107.93  2171.84  2337.90
                             2390.72  4620.25  4634.25  4646.83  4656.19
                             5543.39  5560.45

 Zero-point correction=                           0.115608 (Hartree/Particle)
 Thermal correction to Energy=                    0.124776
 Thermal correction to Enthalpy=                  0.125720
 Thermal correction to Gibbs Free Energy=         0.079231
 Sum of electronic and zero-point Energies=          -2981.695456
 Sum of electronic and thermal Energies=             -2981.686289
 Sum of electronic and thermal Enthalpies=           -2981.685344
 Sum of electronic and thermal Free Energies=        -2981.731833

                     E (Thermal)             CV                S
                      KCal/Mol        Cal/Mol-Kelvin    Cal/Mol-Kelvin
 Total                   78.298             34.227             97.844
 Electronic               0.000              0.000              0.000
 Translational            0.889              2.981             41.784
 Rotational               0.889              2.981             30.874
 Vibrational             76.521             28.266             25.186
 Vibration     1          0.593              1.985              6.531
 Vibration     2          0.605              1.945              3.347
 Vibration     3          0.628              1.869              2.349
 Vibration     4          0.635              1.850              2.203
 Vibration     5          0.666              1.754              1.694
 Vibration     6          0.682              1.704              1.511
 Vibration     7          0.748              1.517              1.047
 Vibration     8          0.777              1.442              0.917
 Vibration     9          0.814              1.349              0.780
 Vibration    10          0.835              1.298              0.714
 Vibration    11          0.862              1.234              0.640
 Vibration    12          0.899              1.153              0.557
 Vibration    13          0.921              1.106              0.513

 Optimization completed.
    -- Stationary point found.
 Normal termination of Gaussian 16 at Wed Apr 30 05:07:28 2025.
