 Gaussian 16, Revision C.01,
 Gaussian 16:  AS64L-G16RevC.01  3-Jul-2019

 ----------------------------------------------------------------------
 # opt=calcfc freq 6-311+g(d,p) scrf=(smd,solvent=thf) nosymm scf=(qc,f
 ermi,xqc,maxcycle=512) geom=connectivity int=ultrafine m062x
 ----------------------------------------------------------------------

 ---------------------------------
 2-cf3-ph-anion-opt-freq-2-thf-512
 ---------------------------------
 Symbolic Z-matrix:
 Charge = -1 Multiplicity = 1

 SCF Done:  E(RM062X) =  -606.676320494     A.U. after   18 cycles
 SCF Done:  E(RM062X) =  -606.690927097     A.U. after   16 cycles
 SCF Done:  E(RM062X) =  -606.691921236     A.U. after   15 cycles
 SCF Done:  E(RM062X) =  -606.691955615     A.U. after   14 cycles
 SCF Done:  E(RM062X) =  -606.691962657     A.U. after   13 cycles
 SCF Done:  E(RM062X) =  -606.691963405     A.U. after   12 cycles
 SCF Done:  E(RM062X) =  -606.691963624     A.U. after   11 cycles
 SCF Done:  E(RM062X) =  -606.691963654     A.U. after    9 cycles
 Optimization completed.
    -- Stationary point found.
 Normal termination of Gaussian 16 at Fri May 30 05:15:04 2025.

 ----------------------------------------------------------------------
 #N Geom=AllCheck Guess=TCheck SCRF=Check GenChk RM062X/6-311+G(d,p) Fr
 eq
 ----------------------------------------------------------------------

 Structure from the checkpoint file:  "2-cf3-ph-anion-opt-freq-2-thf-512.chk"
 ---------------------------------
 2-cf3-ph-anion-opt-freq-2-thf-512
 ---------------------------------
 Charge = -1 Multiplicity = 1

                          Input orientation:
 ---------------------------------------------------------------------
 Center     Atomic      Atomic             Coordinates (Angstroms)
 Number     Number       Type             X           Y           Z
 ---------------------------------------------------------------------
      1          6           0        6.353629    6.955071    5.036144
      2          6           0        5.227082    6.085400    5.032814
      3          1           0        5.351217    5.065825    5.393681
      4          6           0        3.972839    6.457612    4.595551
      5          1           0        3.143297    5.754012    4.614491
      6          6           0        3.719107    7.773976    4.103986
      7          6           0        4.821617    8.673923    4.093094
      8          1           0        4.647365    9.679595    3.723280
      9          6           0        6.056441    8.255345    4.543135
     10          6           0        2.465260    8.219136    3.640627
     11          1           0        1.759784    7.372743    3.736039
     12          6           0        7.198229    9.231955    4.520923
     13          9           0        6.852541   10.454965    4.063927
     14          9           0        7.733334    9.434771    5.742928
     15          9           0        8.219351    8.823950    3.737939
 ---------------------------------------------------------------------

 SCF Done:  E(RM062X) =  -606.691963654     A.U. after    1 cycles

 Alpha  occ. eigenvalues --  -25.25633 -25.25191 -25.25186 -10.77128 -10.54337
 Alpha  occ. eigenvalues --  -10.53800 -10.53235 -10.52625 -10.52343 -10.51318
 Alpha  occ. eigenvalues --  -10.49593  -1.44461  -1.35174  -1.34840  -0.94702
 Alpha  occ. eigenvalues --   -0.86673  -0.82959  -0.78340  -0.71432  -0.69218
 Alpha  occ. eigenvalues --   -0.66983  -0.66879  -0.63635  -0.58858  -0.55375
 Alpha  occ. eigenvalues --   -0.55298  -0.51815  -0.51286  -0.50983  -0.49118
 Alpha  occ. eigenvalues --   -0.48830  -0.48388  -0.45348  -0.42337  -0.40950
 Alpha  occ. eigenvalues --   -0.37235  -0.30312  -0.29550  -0.25559  -0.22993
 Alpha virt. eigenvalues --   -0.05072   0.03152   0.03640   0.04615   0.05709
 Alpha virt. eigenvalues --    0.05836   0.06698   0.07505   0.07512   0.08556
 Alpha virt. eigenvalues --    0.09485   0.09974   0.10094   0.11670   0.12012

 Mulliken charges:
               1
     1  C    0.022777
     2  C   -0.209647
     3  H    0.169073
     4  C   -0.279845
     5  H    0.189500
     6  C   -0.098246
     7  C   -0.370665
     8  H    0.201954
     9  C   -0.514530
    10  C   -0.369196
    11  H    0.133334
    12  C    0.515445
    13  F   -0.179228
    14  F   -0.105975
    15  F   -0.104752
 Sum of Mulliken charges =  -1.00000

 Dipole moment (field-independent basis, Debye):
    X=            -28.0153    Y=            -39.8361    Z=            -21.4727  Tot=             53.2245
 Quadrupole moment (field-independent basis, Debye-Ang):
   XX=           -257.7062   YY=           -401.7107   ZZ=           -168.3902
   XY=           -221.6069   XZ=           -135.2235   YZ=           -174.5370

  Exact polarizability:     214.599     -16.553     144.571      37.433     -22.385     104.973
 Approx polarizability:     173.559     -10.002     129.522      25.689     -16.926      97.094

                      1                      2                      3
                      A                      A                      A
 Frequencies --     32.5779               122.6501               182.0768
 Red. masses --     10.8458                 5.0604                 5.8964
 Frc consts  --      0.0068                 0.0449                 0.1152
 IR Inten    --      0.0159                 3.5640                44.6098

                      4                      5                      6
                      A                      A                      A
 Frequencies --    191.6149               288.4533               322.5010
 Red. masses --      8.8512                 4.0226                10.7018
 Frc consts  --      0.1915                 0.1972                 0.6558
 IR Inten    --      3.4027                11.8800                 0.2575

                      7                      8                      9
                      A                      A                      A
 Frequencies --    376.7079               377.1296               449.0088
 Red. masses --      8.2637                 4.8371                 4.7394
 Frc consts  --      0.6909                 0.4053                 0.5630
 IR Inten    --      5.2867                 3.2396                22.5925

                     10                     11                     12
                      A                      A                      A
 Frequencies --    501.7347               540.4545               586.4885
 Red. masses --     11.8562                 7.9545                12.4717
 Frc consts  --      1.7585                 1.3689                 2.5275
 IR Inten    --     14.1227                17.7863                 0.6729

                     13                     14                     15
                      A                      A                      A
 Frequencies --    631.7296               665.3544               679.1218
 Red. masses --      4.9096                 8.8795                 2.5010
 Frc consts  --      1.1544                 2.3160                 0.6796
 IR Inten    --     17.4322                48.7231                 2.0586

                     16                     17                     18
                      A                      A                      A
 Frequencies --    688.9446               757.7627               865.8442
 Red. masses --      1.3509                11.0661                 1.3971
 Frc consts  --      0.3778                 3.7438                 0.6171
 IR Inten    --     79.5158                11.0385                36.1998

                     19                     20                     21
                      A                      A                      A
 Frequencies --    917.2026               967.5565               984.5855
 Red. masses --      5.9814                 1.5698                 7.6313
 Frc consts  --      2.9647                 0.8659                 4.3587
 IR Inten    --     95.2786                25.9391                16.8566

                     22                     23                     24
                      A                      A                      A
 Frequencies --   1027.4910              1069.2577              1112.2636
 Red. masses --      1.3831                 2.8355                 1.8845
 Frc consts  --      0.8603                 1.9100                 1.3736
 IR Inten    --      0.0244                86.4958                23.4334

                     25                     26                     27
                      A                      A                      A
 Frequencies --   1134.8266              1152.8619              1157.6685
 Red. masses --     11.8780                 2.2388                 1.7243
 Frc consts  --      9.0127                 1.7531                 1.3616
 IR Inten    --    392.7581               233.9075                64.2761

                     28                     29                     30
                      A                      A                      A
 Frequencies --   1244.9398              1291.4679              1347.0325
 Red. masses --      1.6596                 3.1641                 5.4525
 Frc consts  --      1.5155                 3.1094                 5.8292
 IR Inten    --    352.6704               427.9985               107.2916

                     31                     32                     33
                      A                      A                      A
 Frequencies --   1359.8512              1455.1991              1474.5475
 Red. masses --      2.6086                 4.2055                 3.4151
 Frc consts  --      2.8421                 5.2471                 4.3749
 IR Inten    --    285.6975                21.0776                35.7462

                     34                     35                     36
                      A                      A                      A
 Frequencies --   1535.5666              1605.4740              2979.1636
 Red. masses --      5.1826                 5.6489                 1.0816
 Frc consts  --      7.2001                 8.5787                 5.6562
 IR Inten    --     63.3145               766.1981               162.5052

                     37                     38                     39
                      A                      A                      A
 Frequencies --   3140.8314              3174.2547              3202.9862
 Red. masses --      1.0871                 1.0939                 1.0919
 Frc consts  --      6.3187                 6.4938                 6.6001
 IR Inten    --     39.8276                32.3009                 0.9680

 - Thermochemistry -
 -------------------
 Temperature   298.150 Kelvin.  Pressure   1.00000 Atm.
 Atom     1 has atomic number  6 and mass  12.00000

 Molecular mass:   157.02651 amu.
 Principal axes and moments of inertia in atomic units:
                           1         2         3
     Eigenvalues --   807.729192331.903052825.55989
           X            0.86745  -0.43816  -0.23567
           Y            0.49366   0.81691   0.29826
           Z            0.06184  -0.37507   0.92493
 This molecule is an asymmetric top.
 Rotational symmetry number  1.
 Warning -- assumption of classical behavior for rotation
           may cause significant error
 Rotational temperatures (Kelvin)      0.10723     0.03714     0.03065
 Rotational constants (GHZ):           2.23434     0.77393     0.63872
 Zero-point vibrational energy     248794.4 (Joules/Mol)
                                   59.46330 (Kcal/Mol)
 Warning -- explicit consideration of  12 degrees of freedom as
           vibrations may cause significant error
 Vibrational temperatures:     46.87   176.47   261.97   275.69   415.02
          (Kelvin)            464.01   542.00   542.61   646.02   721.88
                              777.59   843.83   908.92   957.30   977.10
                              991.24  1090.25  1245.76  1319.65  1392.10
                             1416.60  1478.33  1538.42  1600.30  1632.76
                             1658.71  1665.63  1791.19  1858.13  1938.08
                             1956.52  2093.71  2121.54  2209.34  2309.92
                             4286.35  4518.96  4567.04  4608.38

 Zero-point correction=                           0.094761 (Hartree/Particle)
 Thermal correction to Energy=                    0.103667
 Thermal correction to Enthalpy=                  0.104611
 Thermal correction to Gibbs Free Energy=         0.059762
 Sum of electronic and zero-point Energies=           -606.597203
 Sum of electronic and thermal Energies=              -606.588297
 Sum of electronic and thermal Enthalpies=            -606.587353
 Sum of electronic and thermal Free Energies=         -606.632202

                     E (Thermal)             CV                S
                      KCal/Mol        Cal/Mol-Kelvin    Cal/Mol-Kelvin
 Total                   65.052             33.438             94.394
 Electronic               0.000              0.000              0.000
 Translational            0.889              2.981             41.063
 Rotational               0.889              2.981             30.055
 Vibrational             63.275             27.476             23.276
 Vibration     1          0.594              1.983              5.666
 Vibration     2          0.610              1.930              3.058
 Vibration     3          0.630              1.864              2.307
 Vibration     4          0.634              1.851              2.212
 Vibration     5          0.685              1.695              1.483
 Vibration     6          0.708              1.630              1.297
 Vibration     7          0.747              1.520              1.052
 Vibration     8          0.748              1.519              1.051
 Vibration     9          0.808              1.363              0.799
 Vibration    10          0.857              1.246              0.654
 Vibration    11          0.896              1.161              0.564
 Vibration    12          0.944              1.061              0.473

 Optimization completed.
    -- Stationary point found.
 Normal termination of Gaussian 16 at Fri May 30 05:16:27 2025.
