 Gaussian 16, Revision C.01,
 Gaussian 16:  AS64L-G16RevC.01  3-Jul-2019

 ----------------------------------------------------------------------
 # opt=(calcfc,tight) freq 6-311+g(d,p) scrf=(smd,solvent=thf) nosymm s
 cf=(qc,fermi,xqc) geom=connectivity int=ultrafine m062x
 ----------------------------------------------------------------------

 ---------------------------
 2-cf3-phboh2-opt-freq-2-thf
 ---------------------------
 Symbolic Z-matrix:
 Charge =  0 Multiplicity = 1

 SCF Done:  E(RM062X) =  -783.251462215     A.U. after   16 cycles
 SCF Done:  E(RM062X) =  -783.251770450     A.U. after   14 cycles
 SCF Done:  E(RM062X) =  -783.251770757     A.U. after   11 cycles
 SCF Done:  E(RM062X) =  -783.251770765     A.U. after    6 cycles
 SCF Done:  E(RM062X) =  -783.251770764     A.U. after    6 cycles
 Optimization completed.
    -- Stationary point found.
 Normal termination of Gaussian 16 at Tue May  6 17:23:58 2025.

 ----------------------------------------------------------------------
 #N Geom=AllCheck Guess=TCheck SCRF=Check GenChk RM062X/6-311+G(d,p) Fr
 eq
 ----------------------------------------------------------------------

 Structure from the checkpoint file:  "2-cf3-phboh2-opt-freq-2-thf.chk"
 ---------------------------
 2-cf3-phboh2-opt-freq-2-thf
 ---------------------------
 Charge =  0 Multiplicity = 1

                          Input orientation:
 ---------------------------------------------------------------------
 Center     Atomic      Atomic             Coordinates (Angstroms)
 Number     Number       Type             X           Y           Z
 ---------------------------------------------------------------------
      1          8           0        8.687698    6.343905    4.846482
      2          1           0        9.499519    6.047409    5.277293
      3          6           0        6.267242    7.000412    5.129152
      4          5           0        7.663041    6.516839    5.715824
      5          8           0        7.826921    6.221315    7.032918
      6          1           0        7.054328    6.398092    7.580393
      7          6           0        5.186912    6.107805    5.159175
      8          1           0        5.317841    5.121507    5.591912
      9          6           0        3.957758    6.465527    4.630585
     10          1           0        3.129290    5.765014    4.650443
     11          6           0        3.756344    7.742605    4.059570
     12          6           0        4.842677    8.644646    4.045021
     13          1           0        4.689135    9.629265    3.617365
     14          6           0        6.067513    8.273293    4.568430
     15          6           0        2.509015    8.174385    3.500042
     16          1           0        1.801074    7.333469    3.597854
     17          6           0        7.209276    9.250943    4.517025
     18          9           0        6.788896   10.522369    4.490923
     19          9           0        8.016393    9.128466    5.588248
     20          9           0        7.981726    9.078575    3.432815
 ---------------------------------------------------------------------

 SCF Done:  E(RM062X) =  -783.251770764     A.U. after    1 cycles

 Alpha  occ. eigenvalues --  -25.28909 -25.28741 -25.28299 -19.64977 -19.64401
 Alpha  occ. eigenvalues --  -10.81234 -10.58944 -10.58282 -10.57999 -10.57920
 Alpha  occ. eigenvalues --  -10.56970 -10.56938 -10.56581  -7.10581  -1.48046
 Alpha  occ. eigenvalues --   -1.38773  -1.38324  -1.17999  -1.14479  -1.00138
 Alpha  occ. eigenvalues --   -0.91340  -0.88726  -0.82261  -0.77205  -0.74017
 Alpha  occ. eigenvalues --   -0.70907  -0.70404  -0.68567  -0.67113  -0.64433
 Alpha  occ. eigenvalues --   -0.62883  -0.59024  -0.58670  -0.57884  -0.56307
 Alpha  occ. eigenvalues --   -0.54359  -0.54197  -0.52847  -0.52343  -0.50970
 Alpha  occ. eigenvalues --   -0.49653  -0.48230  -0.47214  -0.46689  -0.45468
 Alpha  occ. eigenvalues --   -0.42797  -0.41705  -0.40590  -0.35275  -0.34192
 Alpha  occ. eigenvalues --   -0.28885
 Alpha virt. eigenvalues --   -0.09140  -0.01291  -0.00145   0.01914   0.02152
 Alpha virt. eigenvalues --    0.02359   0.02753   0.04022   0.04659   0.04939
 Alpha virt. eigenvalues --    0.06330   0.06736   0.07109   0.07637   0.08639

 Mulliken charges:
               1
     1  O   -0.292083
     2  H    0.303031
     3  C   -1.184306
     4  B    0.422803
     5  O   -0.316042
     6  H    0.305191
     7  C    0.140517
     8  H    0.206526
     9  C   -0.181726
    10  H    0.215527
    11  C    0.044122
    12  C    0.117390
    13  H    0.227091
    14  C   -0.337951
    15  C   -0.228686
    16  H    0.159399
    17  C    0.646139
    18  F   -0.115517
    19  F   -0.079422
    20  F   -0.052008
 Sum of Mulliken charges =   0.00000

 Dipole moment (field-independent basis, Debye):
    X=              0.3312    Y=             -5.3093    Z=              3.9866  Tot=              6.6477
 Quadrupole moment (field-independent basis, Debye-Ang):
   XX=            -83.2458   YY=           -160.2171   ZZ=            -43.1095
   XY=            -21.2716   XZ=             20.1756   YZ=              5.5695

  Exact polarizability:     197.528      -7.453     144.430      32.732     -25.130     116.447
 Approx polarizability:     171.407      -3.787     137.250      23.362     -20.252     112.373

                      1                      2                      3
                      A                      A                      A
 Frequencies --     37.7537                64.9750                77.1825
 Red. masses --      8.4625                 8.9347                 6.4948
 Frc consts  --      0.0071                 0.0222                 0.0228
 IR Inten    --      1.4245                 3.2045                 4.3432

                      4                      5                      6
                      A                      A                      A
 Frequencies --    123.2918               123.7258               181.5006
 Red. masses --      7.1072                 5.9170                 7.0613
 Frc consts  --      0.0637                 0.0534                 0.1371
 IR Inten    --      0.1886                 0.3304                 7.2327

                      7                      8                      9
                      A                      A                      A
 Frequencies --    199.7440               266.6478               283.6431
 Red. masses --      6.7831                 5.7647                 3.9461
 Frc consts  --      0.1594                 0.2415                 0.1871
 IR Inten    --     10.0235                 8.5362                 5.7453

                     10                     11                     12
                      A                      A                      A
 Frequencies --    324.3733               351.1225               372.9969
 Red. masses --      4.2643                 7.5468                 7.5447
 Frc consts  --      0.2644                 0.5482                 0.6184
 IR Inten    --     30.9253                 6.1399                11.6415

                     13                     14                     15
                      A                      A                      A
 Frequencies --    436.7900               469.7452               506.1586
 Red. masses --      4.2189                 4.3540                 1.1388
 Frc consts  --      0.4742                 0.5661                 0.1719
 IR Inten    --     29.0624                13.2494               275.4531

                     16                     17                     18
                      A                      A                      A
 Frequencies --    512.4086               542.7235               547.2644
 Red. masses --      3.7360                 1.7124                 3.1207
 Frc consts  --      0.5779                 0.2972                 0.5507
 IR Inten    --     37.3623                64.7331                 8.9464

                     19                     20                     21
                      A                      A                      A
 Frequencies --    566.1516               586.9069               640.2788
 Red. masses --      1.8054                 3.6649                 5.8692
 Frc consts  --      0.3410                 0.7438                 1.4176
 IR Inten    --     19.9355                25.9164                 4.4240

                     22                     23                     24
                      A                      A                      A
 Frequencies --    662.3655               682.5612               697.8674
 Red. masses --      7.7153                 6.4527                 5.9501
 Frc consts  --      1.9943                 1.7712                 1.7074
 IR Inten    --     14.6326               102.7561                39.4774

                     25                     26                     27
                      A                      A                      A
 Frequencies --    765.2501               777.9969               870.8766
 Red. masses --     11.0917                 4.6797                 1.3305
 Frc consts  --      3.8270                 1.6689                 0.5946
 IR Inten    --      9.9545                 5.0192                52.0226

                     28                     29                     30
                      A                      A                      A
 Frequencies --    939.7556               966.6874              1004.7766
 Red. masses --      6.0418                 1.5068                 1.5322
 Frc consts  --      3.1437                 0.8296                 0.9114
 IR Inten    --     28.4277                29.2767               146.5989

                     31                     32                     33
                      A                      A                      A
 Frequencies --   1025.5865              1030.4967              1062.8939
 Red. masses --      1.3861                 1.4388                 3.3616
 Frc consts  --      0.8590                 0.9002                 2.2376
 IR Inten    --      1.5067               179.2061               105.0378

                     34                     35                     36
                      A                      A                      A
 Frequencies --   1134.5243              1150.9937              1162.3028
 Red. masses --      2.0784                 1.8923                 4.5154
 Frc consts  --      1.5762                 1.4770                 3.5940
 IR Inten    --     52.1394                34.5560               342.1708

                     37                     38                     39
                      A                      A                      A
 Frequencies --   1167.4482              1194.7250              1255.2777
 Red. masses --      1.9143                 3.2705                 2.2651
 Frc consts  --      1.5372                 2.7504                 2.1029
 IR Inten    --    233.9294               144.5465               716.5070

                     40                     41                     42
                      A                      A                      A
 Frequencies --   1296.5403              1340.6063              1346.2951
 Red. masses --      2.4580                 6.3990                 2.7402
 Frc consts  --      2.4344                 6.7758                 2.9262
 IR Inten    --     86.6572               390.6574               220.7687

                     43                     44                     45
                      A                      A                      A
 Frequencies --   1377.8981              1432.7330              1454.6766
 Red. masses --      5.0095                 8.0033                 4.1148
 Frc consts  --      5.6037                 9.6794                 5.1301
 IR Inten    --    373.8564               494.5604                24.1020

                     46                     47                     48
                      A                      A                      A
 Frequencies --   1527.3926              1598.5931              1669.0827
 Red. masses --      2.8192                 7.4753                 6.6620
 Frc consts  --      3.8750                11.2553                10.9347
 IR Inten    --    161.7293                27.4656               168.2297

                     49                     50                     51
                      A                      A                      A
 Frequencies --   3020.0504              3201.3438              3215.4260
 Red. masses --      1.0822                 1.0897                 1.0964
 Frc consts  --      5.8152                 6.5800                 6.6788
 IR Inten    --     95.5261                 0.6087                 0.8309

                     52                     53                     54
                      A                      A                      A
 Frequencies --   3221.4736              3831.8804              3863.5466
 Red. masses --      1.0935                 1.0649                 1.0665
 Frc consts  --      6.6864                 9.2128                 9.3795
 IR Inten    --      4.6645               221.5918               163.8258

 - Thermochemistry -
 -------------------
 Temperature   298.150 Kelvin.  Pressure   1.00000 Atm.
 Atom     1 has atomic number  8 and mass  15.99491

 Molecular mass:   202.04129 amu.
 Principal axes and moments of inertia in atomic units:
                           1         2         3
     Eigenvalues --  2001.869272864.258884261.40031
           X            0.96131   0.10212  -0.25583
           Y            0.00604   0.92071   0.39020
           Z            0.27539  -0.37665   0.88448
 This molecule is an asymmetric top.
 Rotational symmetry number  1.
 Warning -- assumption of classical behavior for rotation
           may cause significant error
 Rotational temperatures (Kelvin)      0.04327     0.03024     0.02033
 Rotational constants (GHZ):           0.90153     0.63009     0.42351
 Zero-point vibrational energy     347905.8 (Joules/Mol)
                                   83.15148 (Kcal/Mol)
 Warning -- explicit consideration of  20 degrees of freedom as
           vibrations may cause significant error
 Vibrational temperatures:     54.32    93.48   111.05   177.39   178.01
          (Kelvin)            261.14   287.39   383.65   408.10   466.70
                              505.19   536.66   628.44   675.86   728.25
                              737.24   780.86   787.39   814.57   844.43
                              921.22   953.00   982.05  1004.08  1101.02
                             1119.36  1253.00  1352.10  1390.85  1445.65
                             1475.59  1482.65  1529.27  1632.33  1656.02
                             1672.29  1679.70  1718.94  1806.06  1865.43
                             1928.83  1937.02  1982.49  2061.38  2092.96
                             2197.58  2300.02  2401.44  4345.18  4606.02
                             4626.28  4634.98  5513.22  5558.78

 Zero-point correction=                           0.132510 (Hartree/Particle)
 Thermal correction to Energy=                    0.145128
 Thermal correction to Enthalpy=                  0.146072
 Thermal correction to Gibbs Free Energy=         0.092802
 Sum of electronic and zero-point Energies=           -783.119260
 Sum of electronic and thermal Energies=              -783.106643
 Sum of electronic and thermal Enthalpies=            -783.105698
 Sum of electronic and thermal Free Energies=         -783.158969

                     E (Thermal)             CV                S
                      KCal/Mol        Cal/Mol-Kelvin    Cal/Mol-Kelvin
 Total                   91.069             47.162            112.117
 Electronic               0.000              0.000              0.000
 Translational            0.889              2.981             41.814
 Rotational               0.889              2.981             31.569
 Vibrational             89.292             41.200             38.734
 Vibration     1          0.594              1.982              5.374
 Vibration     2          0.597              1.971              4.300
 Vibration     3          0.599              1.964              3.961
 Vibration     4          0.610              1.930              3.048
 Vibration     5          0.610              1.929              3.041
 Vibration     6          0.630              1.865              2.313
 Vibration     7          0.638              1.840              2.135
 Vibration     8          0.672              1.734              1.618
 Vibration     9          0.682              1.704              1.512
 Vibration    10          0.709              1.627              1.288
 Vibration    11          0.728              1.573              1.161
 Vibration    12          0.744              1.528              1.067
 Vibration    13          0.797              1.390              0.837
 Vibration    14          0.827              1.317              0.738
 Vibration    15          0.861              1.236              0.643
 Vibration    16          0.867              1.223              0.628
 Vibration    17          0.898              1.156              0.559
 Vibration    18          0.902              1.146              0.550
 Vibration    19          0.922              1.104              0.512
 Vibration    20          0.944              1.060              0.473

 Optimization completed.
    -- Stationary point found.
 Normal termination of Gaussian 16 at Tue May  6 17:26:53 2025.
