 Gaussian 16, Revision C.01,
 Gaussian 16:  AS64L-G16RevC.01  3-Jul-2019

 ----------------------------------------------------------------------
 # opt=calcfc freq 6-311+g(d,p) scrf=(smd,solvent=thf) nosymm scf=(qc,f
 ermi,xqc,maxcycle=512) geom=connectivity int=ultrafine m062x
 ----------------------------------------------------------------------

 ---------------------------
 2-cf3-ph-opt-freq-2-thf-512
 ---------------------------
 Symbolic Z-matrix:
 Charge =  0 Multiplicity = 2

 SCF Done:  E(UM062X) =  -606.531748681     A.U. after   24 cycles
 SCF Done:  E(UM062X) =  -606.536769225     A.U. after   22 cycles
 SCF Done:  E(UM062X) =  -606.536818534     A.U. after   16 cycles
 SCF Done:  E(UM062X) =  -606.536832677     A.U. after   21 cycles
 SCF Done:  E(UM062X) =  -606.536789749     A.U. after   25 cycles
 SCF Done:  E(UM062X) =  -606.536820425     A.U. after   19 cycles
 SCF Done:  E(UM062X) =  -606.536842385     A.U. after   25 cycles
 SCF Done:  E(UM062X) =  -606.506431399     A.U. after   26 cycles
 SCF Done:  E(UM062X) =  -606.487670332     A.U. after  473 cycles
 SCF Done:  E(UM062X) =  -606.474831783     A.U. after   27 cycles
 SCF Done:  E(UM062X) =  -606.536713343     A.U. after   24 cycles
 SCF Done:  E(UM062X) =  -606.536830601     A.U. after   25 cycles
 SCF Done:  E(UM062X) =  -606.536843282     A.U. after   20 cycles
 SCF Done:  E(UM062X) =  -606.536844192     A.U. after   19 cycles
 SCF Done:  E(UM062X) =  -606.536819653     A.U. after   22 cycles
 SCF Done:  E(UM062X) =  -606.536829796     A.U. after   20 cycles
 SCF Done:  E(UM062X) =  -606.536844243     A.U. after   22 cycles
 SCF Done:  E(UM062X) =  -606.536846005     A.U. after   18 cycles
 SCF Done:  E(UM062X) =  -606.536846095     A.U. after   18 cycles
 Optimization completed.
    -- Stationary point found.
 Normal termination of Gaussian 16 at Wed May 14 12:09:50 2025.

 ----------------------------------------------------------------------
 #N Geom=AllCheck Guess=TCheck SCRF=Check GenChk UM062X/6-311+G(d,p) Fr
 eq
 ----------------------------------------------------------------------

 Structure from the checkpoint file:  "2-cf3-ph-opt-freq-2-thf-512.chk"
 ---------------------------
 2-cf3-ph-opt-freq-2-thf-512
 ---------------------------
 Charge =  0 Multiplicity = 2

                          Input orientation:
 ---------------------------------------------------------------------
 Center     Atomic      Atomic             Coordinates (Angstroms)
 Number     Number       Type             X           Y           Z
 ---------------------------------------------------------------------
      1          6           0        6.191025    7.035063    5.037104
      2          6           0        5.212107    6.075642    5.097591
      3          1           0        5.395950    5.086358    5.499230
      4          6           0        3.965207    6.453760    4.609498
      5          1           0        3.141440    5.747154    4.623912
      6          6           0        3.739848    7.753323    4.089134
      7          6           0        4.809107    8.682051    4.067447
      8          1           0        4.628618    9.675303    3.670485
      9          6           0        6.056671    8.319101    4.549110
     10          6           0        2.472918    8.182676    3.579034
     11          1           0        1.778396    7.330565    3.671091
     12          6           0        7.234841    9.248107    4.527086
     13          9           0        6.875204   10.512618    4.286397
     14          9           0        7.897623    9.232978    5.693010
     15          9           0        8.122136    8.903581    3.578429
 ---------------------------------------------------------------------

 SCF Done:  E(UM062X) =  -606.536846095     A.U. after    1 cycles

 Alpha  occ. eigenvalues --  -25.29131 -25.28835 -25.28664 -10.81789 -10.61946
 Alpha  occ. eigenvalues --  -10.59748 -10.59284 -10.59069 -10.57778 -10.56994
 Alpha  occ. eigenvalues --  -10.56928  -1.48356  -1.39055  -1.38588  -1.01537
 Alpha  occ. eigenvalues --   -0.92011  -0.89511  -0.82903  -0.76613  -0.74600
 Alpha  occ. eigenvalues --   -0.71315  -0.70681  -0.69515  -0.63774  -0.59101
 Alpha  occ. eigenvalues --   -0.58799  -0.57544  -0.56044  -0.54583  -0.54499
 Alpha  occ. eigenvalues --   -0.53710  -0.52508  -0.50560  -0.48342  -0.46033
 Alpha  occ. eigenvalues --   -0.43880  -0.36435  -0.34925  -0.34500  -0.28930
 Alpha virt. eigenvalues --   -0.09113  -0.01819   0.01816   0.02498   0.02992
 Alpha virt. eigenvalues --    0.03679   0.05046   0.05393   0.05569   0.06517
 Alpha virt. eigenvalues --    0.07554   0.07784   0.08276   0.08727   0.10291

  Beta  occ. eigenvalues --  -25.29132 -25.28828 -25.28666 -10.81754 -10.60923
  Beta  occ. eigenvalues --  -10.59763 -10.59214 -10.58986 -10.57797 -10.57010
  Beta  occ. eigenvalues --  -10.56939  -1.48346  -1.39053  -1.38589  -1.00604
  Beta  occ. eigenvalues --   -0.91688  -0.88539  -0.82628  -0.75426  -0.74029
  Beta  occ. eigenvalues --   -0.71187  -0.70670  -0.69139  -0.63524  -0.58967
  Beta  occ. eigenvalues --   -0.58763  -0.56609  -0.54583  -0.54471  -0.53737
  Beta  occ. eigenvalues --   -0.53456  -0.52492  -0.50358  -0.47546  -0.45388
  Beta  occ. eigenvalues --   -0.43465  -0.35373  -0.34899  -0.29028
  Beta virt. eigenvalues --   -0.08490  -0.08156  -0.01703   0.01717   0.03027
  Beta virt. eigenvalues --    0.03087   0.03819   0.04970   0.05117   0.05769
  Beta virt. eigenvalues --    0.06671   0.07525   0.07646   0.08328   0.08974

 Mulliken charges and spin densities:
               1          2
     1  C    1.016138   0.814435
     2  C   -0.437682   0.021903
     3  H    0.225122   0.018900
     4  C   -0.166147   0.029232
     5  H    0.224550   0.004609
     6  C    0.117485  -0.033371
     7  C   -0.497880   0.007979
     8  H    0.233381   0.006019
     9  C   -1.029735  -0.013859
    10  C   -0.312113  -0.027077
    11  H    0.160005   0.001694
    12  C    0.749836   0.163206
    13  F   -0.133738  -0.000261
    14  F   -0.086072   0.004257
    15  F   -0.063150   0.002334
 Sum of Mulliken charges =   0.00000   1.00000

 Dipole moment (field-independent basis, Debye):
    X=             -0.2039    Y=             -5.0270    Z=              1.7608  Tot=              5.3304
 Quadrupole moment (field-independent basis, Debye-Ang):
   XX=            -76.5361   YY=           -137.4377   ZZ=            -49.8958
   XY=            -22.0712   XZ=              3.6755   YZ=             -9.0406

  Exact polarizability:     162.494      -1.218     127.934      25.718     -19.752      87.525
 Approx polarizability:     142.867      -0.989     120.410      20.380     -17.159      84.123

                      1                      2                      3
                      A                      A                      A
 Frequencies --     24.3218               119.2186               165.5747
 Red. masses --     10.1301                 5.5327                 8.8946
 Frc consts  --      0.0035                 0.0463                 0.1437
 IR Inten    --      2.6806                 0.3517                 3.8562

                      4                      5                      6
                      A                      A                      A
 Frequencies --    193.2507               273.5015               318.2876
 Red. masses --      6.4971                 2.6295                10.4095
 Frc consts  --      0.1430                 0.1159                 0.6213
 IR Inten    --     17.5538                28.8283                 0.9242

                      7                      8                      9
                      A                      A                      A
 Frequencies --    370.6609               392.8180               446.6681
 Red. masses --      8.2577                 4.4234                 4.7391
 Frc consts  --      0.6684                 0.4022                 0.5571
 IR Inten    --      6.9387                 9.3514                16.6050

                     10                     11                     12
                      A                      A                      A
 Frequencies --    508.3166               539.5716               544.8747
 Red. masses --      4.2233                 1.8466                 7.8951
 Frc consts  --      0.6429                 0.3168                 1.3810
 IR Inten    --     41.1211                67.2566                18.0040

                     13                     14                     15
                      A                      A                      A
 Frequencies --    587.5954               635.1018               648.2252
 Red. masses --     12.2632                 6.0138                 8.4588
 Frc consts  --      2.4946                 1.4292                 2.0942
 IR Inten    --      0.7197                 3.7809                41.8922

                     16                     17                     18
                      A                      A                      A
 Frequencies --    714.3220               762.8289               819.0204
 Red. masses --      3.6548                11.5221                 1.2875
 Frc consts  --      1.0988                 3.9504                 0.5089
 IR Inten    --     25.0371                10.8709                52.5765

                     19                     20                     21
                      A                      A                      A
 Frequencies --    908.3218               960.9688               995.6180
 Red. masses --      5.0154                 1.5067                 6.3284
 Frc consts  --      2.4380                 0.8198                 3.6960
 IR Inten    --     39.5593                36.7659                 2.0655

                     22                     23                     24
                      A                      A                      A
 Frequencies --   1009.1648              1096.6295              1137.3070
 Red. masses --      1.3921                 2.3831                 1.5758
 Frc consts  --      0.8353                 1.6885                 1.2009
 IR Inten    --      0.1053                69.9904                44.8023

                     25                     26                     27
                      A                      A                      A
 Frequencies --   1152.2800              1162.7581              1194.1731
 Red. masses --      1.2507                12.0845                 4.2424
 Frc consts  --      0.9784                 9.6263                 3.5644
 IR Inten    --     97.4134               425.1727               188.1627

                     28                     29                     30
                      A                      A                      A
 Frequencies --   1253.9842              1280.9673              1336.6805
 Red. masses --      2.0735                 2.4383                 4.0637
 Frc consts  --      1.9211                 2.3573                 4.2779
 IR Inten    --    449.1616               309.5719               245.3669

                     31                     32                     33
                      A                      A                      A
 Frequencies --   1367.1555              1443.4316              1472.5656
 Red. masses --      6.0632                 4.2523                 3.1420
 Frc consts  --      6.6771                 5.2200                 4.0143
 IR Inten    --     71.5736                 4.5050                 9.6290

                     34                     35                     36
                      A                      A                      A
 Frequencies --   1596.5792              1644.5294              3022.8626
 Red. masses --      6.0356                 7.9461                 1.0823
 Frc consts  --      9.0647                12.6615                 5.8271
 IR Inten    --    311.8267               158.4345                90.4734

                     37                     38                     39
                      A                      A                      A
 Frequencies --   3205.8078              3216.8101              3221.2494
 Red. masses --      1.0898                 1.0932                 1.0959
 Frc consts  --      6.5989                 6.6649                 6.6998
 IR Inten    --      1.3295                 8.3858                 1.3008

 - Thermochemistry -
 -------------------
 Temperature   298.150 Kelvin.  Pressure   1.00000 Atm.
 Atom     1 has atomic number  6 and mass  12.00000

 Molecular mass:   157.02651 amu.
 Principal axes and moments of inertia in atomic units:
                           1         2         3
     Eigenvalues --   794.551742358.532162839.06614
           X            0.86668  -0.42988  -0.25312
           Y            0.49479   0.80545   0.32623
           Z            0.06363  -0.40798   0.91077
 This molecule is an asymmetric top.
 Rotational symmetry number  1.
 Warning -- assumption of classical behavior for rotation
           may cause significant error
 Rotational temperatures (Kelvin)      0.10901     0.03672     0.03051
 Rotational constants (GHZ):           2.27140     0.76520     0.63568
 Zero-point vibrational energy     249684.6 (Joules/Mol)
                                   59.67605 (Kcal/Mol)
 Warning -- explicit consideration of  13 degrees of freedom as
           vibrations may cause significant error
 Vibrational temperatures:     34.99   171.53   238.23   278.04   393.51
          (Kelvin)            457.94   533.30   565.18   642.66   731.35
                              776.32   783.95   845.42   913.77   932.65
                             1027.75  1097.54  1178.39  1306.87  1382.62
                             1432.47  1451.96  1577.81  1636.33  1657.87
                             1672.95  1718.15  1804.20  1843.03  1923.19
                             1967.03  2076.78  2118.69  2297.12  2366.11
                             4349.23  4612.44  4628.27  4634.66

 Zero-point correction=                           0.095100 (Hartree/Particle)
 Thermal correction to Energy=                    0.104137
 Thermal correction to Enthalpy=                  0.105082
 Thermal correction to Gibbs Free Energy=         0.059062
 Sum of electronic and zero-point Energies=           -606.441746
 Sum of electronic and thermal Energies=              -606.432709
 Sum of electronic and thermal Enthalpies=            -606.431764
 Sum of electronic and thermal Free Energies=         -606.477784

                     E (Thermal)             CV                S
                      KCal/Mol        Cal/Mol-Kelvin    Cal/Mol-Kelvin
 Total                   65.347             33.711             96.856
 Electronic               0.000              0.000              1.377
 Translational            0.889              2.981             41.063
 Rotational               0.889              2.981             30.054
 Vibrational             63.570             27.749             24.361
 Vibration     1          0.593              1.985              6.246
 Vibration     2          0.609              1.933              3.113
 Vibration     3          0.624              1.885              2.485
 Vibration     4          0.635              1.849              2.196
 Vibration     5          0.676              1.722              1.574
 Vibration     6          0.705              1.639              1.319
 Vibration     7          0.743              1.532              1.077
 Vibration     8          0.760              1.486              0.989
 Vibration     9          0.806              1.368              0.806
 Vibration    10          0.863              1.232              0.638
 Vibration    11          0.895              1.163              0.566
 Vibration    12          0.900              1.151              0.555
 Vibration    13          0.945              1.058              0.471

 Optimization completed.
    -- Stationary point found.
 Normal termination of Gaussian 16 at Wed May 14 12:12:08 2025.
