 Gaussian 16, Revision C.01,
 Gaussian 16:  AS64L-G16RevC.01  3-Jul-2019

 ----------------------------------------------------------------------
 # opt=(calcfc,tight) freq 6-311+g(d,p) scrf=(smd,solvent=thf) nosymm s
 cf=(qc,fermi,xqc) geom=connectivity int=ultrafine m062x
 ----------------------------------------------------------------------

 --------------------------
 2-cl-ph-anion-opt-freq-thf
 --------------------------
 Symbolic Z-matrix:
 Charge = -1 Multiplicity = 1

 SCF Done:  E(RM062X) =  -691.246113450     A.U. after   17 cycles
 SCF Done:  E(RM062X) =  -691.259369208     A.U. after   14 cycles
 SCF Done:  E(RM062X) =  -691.260189569     A.U. after   14 cycles
 SCF Done:  E(RM062X) =  -691.260222823     A.U. after   13 cycles
 SCF Done:  E(RM062X) =  -691.260224755     A.U. after   10 cycles
 SCF Done:  E(RM062X) =  -691.260225736     A.U. after   10 cycles
 SCF Done:  E(RM062X) =  -691.260225740     A.U. after    7 cycles
 Optimization completed.
    -- Stationary point found.
 Normal termination of Gaussian 16 at Fri May 30 05:11:27 2025.

 ----------------------------------------------------------------------
 #N Geom=AllCheck Guess=TCheck SCRF=Check GenChk RM062X/6-311+G(d,p) Fr
 eq
 ----------------------------------------------------------------------

 Structure from the checkpoint file:  "2-cl-ph-anion-opt-freq-thf.chk"
 --------------------------
 2-cl-ph-anion-opt-freq-thf
 --------------------------
 Charge = -1 Multiplicity = 1

                          Input orientation:
 ---------------------------------------------------------------------
 Center     Atomic      Atomic             Coordinates (Angstroms)
 Number     Number       Type             X           Y           Z
 ---------------------------------------------------------------------
      1          6           0        6.336915    7.031226    5.171391
      2          6           0        5.250533    6.126894    5.085493
      3          1           0        5.382379    5.110181    5.457059
      4          6           0        3.997647    6.441942    4.552830
      5          1           0        3.208918    5.695242    4.522705
      6          6           0        3.759197    7.722824    4.056749
      7          6           0        4.781069    8.666588    4.110221
      8          1           0        4.627513    9.672098    3.733748
      9          6           0        5.998435    8.270589    4.663034
     10          1           0        2.795855    7.989342    3.635393
     11         17           0        7.252481    9.598437    4.694558
 ---------------------------------------------------------------------

 SCF Done:  E(RM062X) =  -691.260225740     A.U. after    1 cycles

 Alpha  occ. eigenvalues -- -102.62425 -10.55373 -10.51579 -10.51224 -10.50749
 Alpha  occ. eigenvalues --  -10.50120 -10.45855  -9.76704  -7.49140  -7.48590
 Alpha  occ. eigenvalues --   -7.48576  -0.93736  -0.88413  -0.79728  -0.77581
 Alpha  occ. eigenvalues --   -0.64397  -0.62337  -0.54361  -0.48300  -0.47272
 Alpha  occ. eigenvalues --   -0.44391  -0.41934  -0.41173  -0.36044  -0.35750
 Alpha  occ. eigenvalues --   -0.33336  -0.26917  -0.25715  -0.21152
 Alpha virt. eigenvalues --    0.03658   0.04652   0.04699   0.05658   0.05721
 Alpha virt. eigenvalues --    0.06709   0.08326   0.08535   0.08937   0.09534
 Alpha virt. eigenvalues --    0.10800   0.11294   0.11754   0.12736   0.14839

 Mulliken charges:
               1
     1  C   -0.692323
     2  C   -0.363338
     3  H    0.156420
     4  C   -0.192837
     5  H    0.168334
     6  C   -0.503528
     7  C   -0.615563
     8  H    0.190983
     9  C    0.593603
    10  H    0.176077
    11  Cl   0.082172
 Sum of Mulliken charges =  -1.00000

 Dipole moment (field-independent basis, Debye):
    X=            -32.8829    Y=            -36.5860    Z=            -24.8185  Tot=             55.0979
 Quadrupole moment (field-independent basis, Debye-Ang):
   XX=           -278.2776   YY=           -335.7712   ZZ=           -183.4738
   XY=           -251.7697   XZ=           -168.6165   YZ=           -189.1360

  Exact polarizability:     143.361      14.414     141.156      19.059     -15.652      87.191
 Approx polarizability:     125.682      12.104     129.161      15.051     -13.995      81.274

                      1                      2                      3
                      A                      A                      A
 Frequencies --    166.4744               303.3954               369.5124
 Red. masses --      5.2530                 6.7158                15.1221
 Frc consts  --      0.0858                 0.3642                 1.2165
 IR Inten    --      7.6450                 4.5892                36.5787

                      4                      5                      6
                      A                      A                      A
 Frequencies --    405.4681               488.1740               606.1496
 Red. masses --      3.3433                 3.6823                 7.1667
 Frc consts  --      0.3238                 0.5170                 1.5514
 IR Inten    --     20.0855                 0.3752                 1.3298

                      7                      8                      9
                      A                      A                      A
 Frequencies --    671.1147               711.5606               770.5371
 Red. masses --      7.6329                 2.6573                 1.5185
 Frc consts  --      2.0255                 0.7927                 0.5312
 IR Inten    --    124.1833                11.0110                95.0718

                     10                     11                     12
                      A                      A                      A
 Frequencies --    892.0658               965.5584               978.4736
 Red. masses --      1.2829                 1.3948                 7.5225
 Frc consts  --      0.6015                 0.7662                 4.2434
 IR Inten    --      0.5170                 0.6086                47.6274

                     13                     14                     15
                      A                      A                      A
 Frequencies --    995.9047              1009.5789              1063.2859
 Red. masses --      6.5026                 1.3117                 1.9328
 Frc consts  --      3.7999                 0.7877                 1.2875
 IR Inten    --    147.1765                 0.0127                24.5616

                     16                     17                     18
                      A                      A                      A
 Frequencies --   1113.9888              1156.0583              1257.5152
 Red. masses --      1.6436                 1.1140                 2.2167
 Frc consts  --      1.2017                 0.8772                 2.0653
 IR Inten    --     20.8544                 0.3997                56.0007

                     19                     20                     21
                      A                      A                      A
 Frequencies --   1290.8115              1421.9536              1445.8593
 Red. masses --      2.5541                 2.0316                 2.0283
 Frc consts  --      2.5074                 2.4203                 2.4982
 IR Inten    --     62.6945                82.5737                 5.1086

                     22                     23                     24
                      A                      A                      A
 Frequencies --   1594.5275              1610.5903              3116.1236
 Red. masses --      5.1776                 5.7103                 1.0868
 Frc consts  --      7.7561                 8.7272                 6.2177
 IR Inten    --     42.5453                10.1296                64.3504

                     25                     26                     27
                      A                      A                      A
 Frequencies --   3176.5310              3194.3941              3210.0037
 Red. masses --      1.0896                 1.0903                 1.0978
 Frc consts  --      6.4778                 6.5550                 6.6647
 IR Inten    --     33.2339                16.0688                26.9257

 - Thermochemistry -
 -------------------
 Temperature   298.150 Kelvin.  Pressure   1.00000 Atm.
 Atom     1 has atomic number  6 and mass  12.00000

 Molecular mass:   111.00015 amu.
 Principal axes and moments of inertia in atomic units:
                           1         2         3
     Eigenvalues --   307.578841155.624221463.18036
           X            0.71469  -0.62324  -0.31746
           Y            0.69879   0.65581   0.28567
           Z            0.03015  -0.42600   0.90422
 This molecule is an asymmetric top.
 Rotational symmetry number  1.
 Rotational temperatures (Kelvin)      0.28160     0.07495     0.05920
 Rotational constants (GHZ):           5.86757     1.56170     1.23344
 Zero-point vibrational energy     203279.1 (Joules/Mol)
                                   48.58487 (Kcal/Mol)
 Warning -- explicit consideration of   6 degrees of freedom as
           vibrations may cause significant error
 Vibrational temperatures:    239.52   436.52   531.65   583.38   702.37
          (Kelvin)            872.11   965.58  1023.78  1108.63  1283.48
                             1389.22  1407.81  1432.88  1452.56  1529.83
                             1602.78  1663.31  1809.28  1857.19  2045.87
                             2080.27  2294.17  2317.28  4483.41  4570.32
                             4596.02  4618.48

 Zero-point correction=                           0.077425 (Hartree/Particle)
 Thermal correction to Energy=                    0.082970
 Thermal correction to Enthalpy=                  0.083914
 Thermal correction to Gibbs Free Energy=         0.047570
 Sum of electronic and zero-point Energies=           -691.182801
 Sum of electronic and thermal Energies=              -691.177256
 Sum of electronic and thermal Enthalpies=            -691.176312
 Sum of electronic and thermal Free Energies=         -691.212656

                     E (Thermal)             CV                S
                      KCal/Mol        Cal/Mol-Kelvin    Cal/Mol-Kelvin
 Total                   52.064             20.704             76.493
 Electronic               0.000              0.000              0.000
 Translational            0.889              2.981             40.029
 Rotational               0.889              2.981             27.744
 Vibrational             50.287             14.742              8.720
 Vibration     1          0.624              1.884              2.475
 Vibration     2          0.695              1.667              1.398
 Vibration     3          0.742              1.535              1.082
 Vibration     4          0.770              1.458              0.943
 Vibration     5          0.844              1.276              0.688
 Vibration     6          0.965              1.019              0.439

 Optimization completed.
    -- Stationary point found.
 Normal termination of Gaussian 16 at Fri May 30 05:11:59 2025.
