 Gaussian 16, Revision C.01,
 Gaussian 16:  AS64L-G16RevC.01  3-Jul-2019

 ----------------------------------------------------------------------
 # opt=(calcfc,tight) freq 6-311+g(d,p) scrf=(smd,solvent=thf) nosymm s
 cf=(qc,fermi,xqc) geom=connectivity int=ultrafine m062x
 ----------------------------------------------------------------------

 --------------------
 2-Me-ph-opt-freq-thf
 --------------------
 Symbolic Z-matrix:
 Charge =  0 Multiplicity = 2

 SCF Done:  E(UM062X) =  -270.822822368     A.U. after   17 cycles
 SCF Done:  E(UM062X) =  -270.828259593     A.U. after   15 cycles
 SCF Done:  E(UM062X) =  -270.828293758     A.U. after   13 cycles
 SCF Done:  E(UM062X) =  -270.828296213     A.U. after   12 cycles
 SCF Done:  E(UM062X) =  -270.828282567     A.U. after   14 cycles
 SCF Done:  E(UM062X) =  -270.828296698     A.U. after   13 cycles
 SCF Done:  E(UM062X) =  -270.828295849     A.U. after   12 cycles
 SCF Done:  E(UM062X) =  -270.828295702     A.U. after    9 cycles
 SCF Done:  E(UM062X) =  -270.828296763     A.U. after   11 cycles
 SCF Done:  E(UM062X) =  -270.828297622     A.U. after   11 cycles
 SCF Done:  E(UM062X) =  -270.828297545     A.U. after   11 cycles
 SCF Done:  E(UM062X) =  -270.828297750     A.U. after   10 cycles
 SCF Done:  E(UM062X) =  -270.828297758     A.U. after    8 cycles
 SCF Done:  E(UM062X) =  -270.828297758     A.U. after    5 cycles
 Optimization completed.
    -- Stationary point found.
 Normal termination of Gaussian 16 at Fri May  9 07:48:59 2025.

 ----------------------------------------------------------------------
 #N Geom=AllCheck Guess=TCheck SCRF=Check GenChk UM062X/6-311+G(d,p) Fr
 eq
 ----------------------------------------------------------------------

 Structure from the checkpoint file:  "2-Me-ph-opt-freq-thf.chk"
 --------------------
 2-Me-ph-opt-freq-thf
 --------------------
 Charge =  0 Multiplicity = 2

                          Input orientation:
 ---------------------------------------------------------------------
 Center     Atomic      Atomic             Coordinates (Angstroms)
 Number     Number       Type             X           Y           Z
 ---------------------------------------------------------------------
      1          6           0        6.223681    7.041064    5.030623
      2          6           0        5.226307    6.109928    5.169282
      3          1           0        5.399609    5.143218    5.629544
      4          6           0        3.960411    6.463925    4.685594
      5          1           0        3.135096    5.765608    4.768825
      6          6           0        3.773126    7.712116    4.099441
      7          6           0        4.831216    8.614255    3.988837
      8          1           0        4.670168    9.584265    3.527819
      9          6           0        6.110615    8.293759    4.462923
     10          1           0        2.794925    7.988876    3.723175
     11          6           0        7.270282    9.248820    4.364147
     12          1           0        7.610020    9.547677    5.358821
     13          1           0        8.115580    8.781987    3.853888
     14          1           0        6.985208   10.146492    3.814060
 ---------------------------------------------------------------------

 SCF Done:  E(UM062X) =  -270.828297758     A.U. after    1 cycles

 Alpha  occ. eigenvalues --  -10.56416 -10.55888 -10.54938 -10.54723 -10.54651
 Alpha  occ. eigenvalues --  -10.54245 -10.52940  -0.97327  -0.87513  -0.84366
 Alpha  occ. eigenvalues --   -0.77847  -0.68781  -0.66486  -0.57946  -0.53559
 Alpha  occ. eigenvalues --   -0.51522  -0.48935  -0.48067  -0.46008  -0.43450
 Alpha  occ. eigenvalues --   -0.43240  -0.41036  -0.31745  -0.30398  -0.30033
 Alpha virt. eigenvalues --    0.01507   0.01701   0.02058   0.03260   0.03991
 Alpha virt. eigenvalues --    0.05404   0.05698   0.06122   0.07386   0.08289
 Alpha virt. eigenvalues --    0.08419   0.08923   0.09759   0.10992   0.12740

  Beta  occ. eigenvalues --  -10.55900 -10.55478 -10.54942 -10.54645 -10.54579
  Beta  occ. eigenvalues --  -10.54272 -10.52906  -0.96451  -0.87173  -0.83222
  Beta  occ. eigenvalues --   -0.77285  -0.67944  -0.65390  -0.57035  -0.52880
  Beta  occ. eigenvalues --   -0.50742  -0.48732  -0.47611  -0.45346  -0.42809
  Beta  occ. eigenvalues --   -0.42295  -0.40525  -0.30971  -0.29779
  Beta virt. eigenvalues --   -0.05437   0.01503   0.02071   0.02614   0.03288
  Beta virt. eigenvalues --    0.04298   0.05466   0.05606   0.06496   0.07533
  Beta virt. eigenvalues --    0.08113   0.08513   0.09184   0.09467   0.11131

 Mulliken charges and spin densities:
               1          2
     1  C    0.306563   0.713634
     2  C   -0.264079   0.053116
     3  H    0.201481   0.017619
     4  C   -0.149427   0.016107
     5  H    0.194446   0.004867
     6  C   -0.222621  -0.029031
     7  C   -0.695400   0.032429
     8  H    0.190929   0.006457
     9  C    0.449962   0.106316
    10  H    0.192660   0.003274
    11  C   -0.792715   0.080268
    12  H    0.206859  -0.002481
    13  H    0.199014  -0.002614
    14  H    0.182327   0.000037
 Sum of Mulliken charges =   0.00000   1.00000

 Dipole moment (field-independent basis, Debye):
    X=             -0.5191    Y=              0.6379    Z=             -0.3962  Tot=              0.9129
 Quadrupole moment (field-independent basis, Debye-Ang):
   XX=            -44.1364   YY=            -27.4853   ZZ=            -48.1328
   XY=              2.1057   XZ=             -3.6278   YZ=             -3.2113

  Exact polarizability:     119.777      11.765     114.615       9.472     -18.050      75.404
 Approx polarizability:     110.736       7.563     106.968       9.330     -16.664      72.948

                      1                      2                      3
                      A                      A                      A
 Frequencies --     48.6941               206.5700               329.8111
 Red. masses --      1.0511                 3.1066                 2.6935
 Frc consts  --      0.0015                 0.0781                 0.1726
 IR Inten    --      0.5162                 7.3995                 3.1397

                      4                      5                      6
                      A                      A                      A
 Frequencies --    419.2657               483.0330               516.1717
 Red. masses --      3.1218                 3.2826                 5.4947
 Frc consts  --      0.3233                 0.4513                 0.8625
 IR Inten    --      8.0826                 3.7152                 1.9060

                      7                      8                      9
                      A                      A                      A
 Frequencies --    628.0250               690.7816               753.5852
 Red. masses --      7.0023                 3.6479                 1.1788
 Frc consts  --      1.6272                 1.0256                 0.3944
 IR Inten    --      0.0744                 0.8113               128.0105

                     10                     11                     12
                      A                      A                      A
 Frequencies --    800.6354               872.5244               961.8984
 Red. masses --      4.3732                 1.2799                 1.3574
 Frc consts  --      1.6516                 0.5741                 0.7400
 IR Inten    --      3.1913                 0.4309                 0.6129

                     13                     14                     15
                      A                      A                      A
 Frequencies --    986.1613              1004.2318              1011.5916
 Red. masses --      3.5096                 1.8191                 1.3135
 Frc consts  --      2.0109                 1.0809                 0.7920
 IR Inten    --      0.3897                 2.4645                 0.0027

                     16                     17                     18
                      A                      A                      A
 Frequencies --   1052.9125              1062.0357              1133.0429
 Red. masses --      2.1161                 1.5064                 1.3696
 Frc consts  --      1.3822                 1.0011                 1.0360
 IR Inten    --     13.5904                 8.1225                 9.2555

                     19                     20                     21
                      A                      A                      A
 Frequencies --   1160.2674              1227.7054              1277.8949
 Red. masses --      1.1278                 2.2233                 1.7751
 Frc consts  --      0.8945                 1.9744                 1.7079
 IR Inten    --      0.6846                 2.2704                 3.5586

                     22                     23                     24
                      A                      A                      A
 Frequencies --   1313.2709              1409.2372              1447.1213
 Red. masses --      3.9265                 1.2597                 1.8856
 Frc consts  --      3.9899                 1.4740                 2.3265
 IR Inten    --      1.6629                 1.1224                 0.0355

                     25                     26                     27
                      A                      A                      A
 Frequencies --   1474.4906              1483.8152              1492.2803
 Red. masses --      1.0515                 1.9634                 1.4357
 Frc consts  --      1.3470                 2.5470                 1.8837
 IR Inten    --     13.8708                19.9666                23.8969

                     28                     29                     30
                      A                      A                      A
 Frequencies --   1604.4843              1666.2433              3066.7629
 Red. masses --      5.1107                 7.6912                 1.0361
 Frc consts  --      7.7517                12.5812                 5.7414
 IR Inten    --      3.4218                 1.9703                21.8392

                     31                     32                     33
                      A                      A                      A
 Frequencies --   3131.8103              3153.3505              3188.4086
 Red. masses --      1.1020                 1.1035                 1.0893
 Frc consts  --      6.3682                 6.4648                 6.5242
 IR Inten    --      9.7581                13.6217                 4.6072

                     34                     35                     36
                      A                      A                      A
 Frequencies --   3198.2801              3209.4589              3221.7325
 Red. masses --      1.0878                 1.0929                 1.0981
 Frc consts  --      6.5562                 6.6327                 6.7155
 IR Inten    --      1.0633                 4.9675                 8.0451

 - Thermochemistry -
 -------------------
 Temperature   298.150 Kelvin.  Pressure   1.00000 Atm.
 Atom     1 has atomic number  6 and mass  12.00000

 Molecular mass:    91.05478 amu.
 Principal axes and moments of inertia in atomic units:
                           1         2         3
     Eigenvalues --   303.49014 719.213721011.52151
           X            0.74971  -0.61844  -0.23550
           Y            0.65642   0.64987   0.38311
           Z           -0.08388  -0.44182   0.89318
 This molecule is an asymmetric top.
 Rotational symmetry number  1.
 Rotational temperatures (Kelvin)      0.28539     0.12043     0.08563
 Rotational constants (GHZ):           5.94662     2.50933     1.78418
 Zero-point vibrational energy     303179.1 (Joules/Mol)
                                   72.46154 (Kcal/Mol)
 Warning -- explicit consideration of   6 degrees of freedom as
           vibrations may cause significant error
 Vibrational temperatures:     70.06   297.21   474.52   603.23   694.98
          (Kelvin)            742.66   903.59   993.88  1084.24  1151.94
                             1255.37  1383.96  1418.87  1444.87  1455.45
                             1514.91  1528.03  1630.20  1669.37  1766.39
                             1838.61  1889.50  2027.58  2082.08  2121.46
                             2134.88  2147.06  2308.50  2397.35  4412.39
                             4505.98  4536.97  4587.41  4601.61  4617.70
                             4635.35

 Zero-point correction=                           0.115475 (Hartree/Particle)
 Thermal correction to Energy=                    0.121639
 Thermal correction to Enthalpy=                  0.122583
 Thermal correction to Gibbs Free Energy=         0.084441
 Sum of electronic and zero-point Energies=           -270.712823
 Sum of electronic and thermal Energies=              -270.706659
 Sum of electronic and thermal Enthalpies=            -270.705715
 Sum of electronic and thermal Free Energies=         -270.743857

                     E (Thermal)             CV                S
                      KCal/Mol        Cal/Mol-Kelvin    Cal/Mol-Kelvin
 Total                   76.329             22.741             80.277
 Electronic               0.000              0.000              1.377
 Translational            0.889              2.981             39.439
 Rotational               0.889              2.981             26.893
 Vibrational             74.552             16.779             12.569
 Vibration     1          0.595              1.978              4.870
 Vibration     2          0.641              1.831              2.074
 Vibration     3          0.713              1.616              1.261
 Vibration     4          0.782              1.428              0.894
 Vibration     5          0.839              1.288              0.702
 Vibration     6          0.871              1.214              0.619

 Optimization completed.
    -- Stationary point found.
 Normal termination of Gaussian 16 at Fri May  9 07:50:14 2025.
