 Gaussian 16, Revision C.01,
 Gaussian 16:  AS64L-G16RevC.01  3-Jul-2019

 ----------------------------------------------------------------------
 # opt=(calcfc,tight) freq 6-311+g(d,p) nosymm scf=(qc,fermi,xqc) geom=
 connectivity int=ultrafine m062x
 ----------------------------------------------------------------------

 --------------------
 2-Me-phboh2-opt-freq
 --------------------
 Symbolic Z-matrix:
 Charge =  0 Multiplicity = 1

 SCF Done:  E(RM062X) =  -447.519981637     A.U. after   14 cycles
 SCF Done:  E(RM062X) =  -447.528603972     A.U. after   15 cycles
 SCF Done:  E(RM062X) =  -447.509119330     A.U. after   15 cycles
 SCF Done:  E(RM062X) =  -447.528760929     A.U. after   13 cycles
 SCF Done:  E(RM062X) =  -447.528764058     A.U. after   15 cycles
 SCF Done:  E(RM062X) =  -447.529397794     A.U. after   12 cycles
 SCF Done:  E(RM062X) =  -447.529437912     A.U. after   11 cycles
 SCF Done:  E(RM062X) =  -447.529441311     A.U. after    9 cycles
 SCF Done:  E(RM062X) =  -447.529444663     A.U. after   10 cycles
 SCF Done:  E(RM062X) =  -447.529449704     A.U. after   10 cycles
 SCF Done:  E(RM062X) =  -447.529458956     A.U. after   10 cycles
 SCF Done:  E(RM062X) =  -447.529460665     A.U. after   10 cycles
 SCF Done:  E(RM062X) =  -447.529460738     A.U. after    9 cycles
 SCF Done:  E(RM062X) =  -447.529460763     A.U. after    7 cycles
 SCF Done:  E(RM062X) =  -447.529460791     A.U. after    8 cycles
 SCF Done:  E(RM062X) =  -447.529460799     A.U. after    8 cycles
 SCF Done:  E(RM062X) =  -447.529460800     A.U. after    6 cycles
 SCF Done:  E(RM062X) =  -447.529460800     A.U. after    5 cycles
 SCF Done:  E(RM062X) =  -447.529460800     A.U. after    5 cycles
 Optimization completed.
    -- Stationary point found.
 Normal termination of Gaussian 16 at Tue Apr 22 20:52:57 2025.

 ----------------------------------------------------------------------
 #N Geom=AllCheck Guess=TCheck SCRF=Check GenChk RM062X/6-311+G(d,p) Fr
 eq
 ----------------------------------------------------------------------

 Structure from the checkpoint file:  "2-Me-phboh2-opt-freq.chk"
 --------------------
 2-Me-phboh2-opt-freq
 --------------------
 Charge =  0 Multiplicity = 1

                          Input orientation:
 ---------------------------------------------------------------------
 Center     Atomic      Atomic             Coordinates (Angstroms)
 Number     Number       Type             X           Y           Z
 ---------------------------------------------------------------------
      1          8           0        8.847644    7.019424    5.264716
      2          1           0        9.595273    6.641589    5.738112
      3          6           0        6.296346    7.017022    5.132020
      4          5           0        7.663137    6.547726    5.746373
      5          8           0        7.728698    5.639189    6.771777
      6          1           0        6.873629    5.404766    7.137188
      7          6           0        5.198723    6.150892    5.220581
      8          1           0        5.318548    5.175884    5.686079
      9          6           0        3.953601    6.480035    4.698670
     10          1           0        3.126204    5.784800    4.773737
     11          6           0        3.788137    7.711456    4.078514
     12          6           0        4.863955    8.587203    3.980741
     13          1           0        4.726235    9.548118    3.496326
     14          6           0        6.121579    8.259974    4.489240
     15          1           0        2.824448    7.992090    3.669270
     16          6           0        7.252463    9.247300    4.337324
     17          1           0        7.744720    9.440321    5.291764
     18          1           0        8.018770    8.859039    3.664329
     19          1           0        6.881690   10.192441    3.939144
 ---------------------------------------------------------------------

 SCF Done:  E(RM062X) =  -447.529460800     A.U. after    1 cycles

 Alpha  occ. eigenvalues --  -19.63782 -19.63252 -10.55583 -10.55022 -10.54747
 Alpha  occ. eigenvalues --  -10.54342 -10.54075 -10.52980 -10.52426  -7.08506
 Alpha  occ. eigenvalues --   -1.16998  -1.13217  -0.96454  -0.87142  -0.84507
 Alpha  occ. eigenvalues --   -0.77404  -0.69742  -0.67005  -0.65177  -0.62524
 Alpha  occ. eigenvalues --   -0.58344  -0.53689  -0.52285  -0.50537  -0.49091
 Alpha  occ. eigenvalues --   -0.47542  -0.46929  -0.46222  -0.45122  -0.43396
 Alpha  occ. eigenvalues --   -0.42501  -0.40471  -0.39888  -0.37727  -0.31140
 Alpha  occ. eigenvalues --   -0.29865
 Alpha virt. eigenvalues --   -0.00333  -0.00209   0.01433   0.01651   0.01825
 Alpha virt. eigenvalues --    0.03056   0.03755   0.03999   0.05047   0.06514
 Alpha virt. eigenvalues --    0.06727   0.07057   0.08394   0.09722   0.10423

 Mulliken charges:
               1
     1  O   -0.351965
     2  H    0.288841
     3  C   -0.780572
     4  B    0.387844
     5  O   -0.336302
     6  H    0.254745
     7  C    0.073293
     8  H    0.132233
     9  C   -0.254805
    10  H    0.154324
    11  C   -0.079270
    12  C   -0.766691
    13  H    0.152012
    14  C    1.151287
    15  H    0.158414
    16  C   -0.738414
    17  H    0.184825
    18  H    0.210990
    19  H    0.159211
 Sum of Mulliken charges =   0.00000

 Dipole moment (field-independent basis, Debye):
    X=             -0.7655    Y=             -0.2252    Z=              0.6461  Tot=              1.0267
 Quadrupole moment (field-independent basis, Debye-Ang):
   XX=            -63.7116   YY=            -59.5066   ZZ=            -53.4935
   XY=             -5.5140   XZ=              1.9072   YZ=              0.2102

  Exact polarizability:     118.728       5.260      98.767      12.500     -19.171      74.991
 Approx polarizability:     141.993       6.389     125.233      12.808     -22.265      96.339

                      1                      2                      3
                      A                      A                      A
 Frequencies --     48.4961               112.6107               148.6165
 Red. masses --      5.1046                 4.1037                 1.0554
 Frc consts  --      0.0071                 0.0307                 0.0137
 IR Inten    --      1.3762                 0.5677                 0.5906

                      4                      5                      6
                      A                      A                      A
 Frequencies --    189.9437               214.6840               317.4736
 Red. masses --      4.9362                 3.0697                 4.3980
 Frc consts  --      0.1049                 0.0834                 0.2612
 IR Inten    --      1.8289                 3.2441                 3.4900

                      7                      8                      9
                      A                      A                      A
 Frequencies --    335.5883               404.0855               460.5686
 Red. masses --      4.5253                 3.0079                 3.0372
 Frc consts  --      0.3003                 0.2894                 0.3796
 IR Inten    --      4.2500                 3.8848                 9.7164

                     10                     11                     12
                      A                      A                      A
 Frequencies --    495.4726               509.1567               529.0014
 Red. masses --      2.2037                 1.2794                 4.2502
 Frc consts  --      0.3187                 0.1954                 0.7008
 IR Inten    --     23.8297               131.9521                21.6339

                     13                     14                     15
                      A                      A                      A
 Frequencies --    575.6069               580.1762               676.1981
 Red. masses --      2.6430                 1.6817                 4.1969
 Frc consts  --      0.5159                 0.3335                 1.1306
 IR Inten    --     12.1230                16.1945                87.2198

                     16                     17                     18
                      A                      A                      A
 Frequencies --    708.8413               748.9108               781.1917
 Red. masses --      5.1233                 2.1513                 1.6642
 Frc consts  --      1.5167                 0.7109                 0.5984
 IR Inten    --      6.2320                42.0620                18.0392

                     19                     20                     21
                      A                      A                      A
 Frequencies --    821.9886               898.3374               976.4980
 Red. masses --      4.6824                 1.2946                 1.3781
 Frc consts  --      1.8640                 0.6156                 0.7742
 IR Inten    --      1.4864                 0.4060                 2.9566

                     22                     23                     24
                      A                      A                      A
 Frequencies --    996.1163              1016.3837              1018.8106
 Red. masses --      1.5188                 1.5457                 1.3248
 Frc consts  --      0.8879                 0.9408                 0.8102
 IR Inten    --     94.4569                 1.3500                 0.9202

                     25                     26                     27
                      A                      A                      A
 Frequencies --   1040.6063              1063.5966              1082.2553
 Red. masses --      1.4829                 1.5776                 2.4375
 Frc consts  --      0.9461                 1.0515                 1.6821
 IR Inten    --    142.2049                 3.0683                 4.1546

                     28                     29                     30
                      A                      A                      A
 Frequencies --   1109.3553              1160.8641              1183.9125
 Red. masses --      2.6064                 1.5803                 1.1436
 Frc consts  --      1.8899                 1.2547                 0.9445
 IR Inten    --     59.1852                 4.5808                 0.5878

                     31                     32                     33
                      A                      A                      A
 Frequencies --   1237.4181              1299.4251              1313.2218
 Red. masses --      2.3634                 2.5444                 2.1389
 Frc consts  --      2.1322                 2.5312                 2.1732
 IR Inten    --      1.5341                13.1637                20.6322

                     34                     35                     36
                      A                      A                      A
 Frequencies --   1381.1111              1410.3369              1420.6940
 Red. masses --      4.4065                 3.9473                 1.2715
 Frc consts  --      4.9522                 4.6259                 1.5121
 IR Inten    --    381.1223               253.1171                 1.5107

                     37                     38                     39
                      A                      A                      A
 Frequencies --   1480.2506              1487.2981              1496.9060
 Red. masses --      1.5597                 1.2393                 1.2885
 Frc consts  --      2.0135                 1.6152                 1.7010
 IR Inten    --     85.3541                28.9964                27.3489

                     40                     41                     42
                      A                      A                      A
 Frequencies --   1534.7898              1640.1740              1673.6522
 Red. masses --      2.6380                 6.0669                 5.9519
 Frc consts  --      3.6611                 9.6160                 9.8228
 IR Inten    --     23.9939                 8.7657                35.7381

                     43                     44                     45
                      A                      A                      A
 Frequencies --   3074.6678              3142.3262              3152.8299
 Red. masses --      1.0356                 1.1004                 1.1038
 Frc consts  --      5.7682                 6.4021                 6.4644
 IR Inten    --     15.8182                 6.3793                12.9804

                     46                     47                     48
                      A                      A                      A
 Frequencies --   3168.1507              3193.5659              3209.0782
 Red. masses --      1.0885                 1.0880                 1.0917
 Frc consts  --      6.4373                 6.5379                 6.6240
 IR Inten    --     15.5499                 3.9719                12.3559

                     49                     50                     51
                      A                      A                      A
 Frequencies --   3223.9489              3897.3137              3940.1713
 Red. masses --      1.0979                 1.0651                 1.0660
 Frc consts  --      6.7237                 9.5314                 9.7504
 IR Inten    --     11.7089                98.5033                58.9606

 - Thermochemistry -
 -------------------
 Temperature   298.150 Kelvin.  Pressure   1.00000 Atm.
 Atom     1 has atomic number  8 and mass  15.99491

 Molecular mass:   136.06956 amu.
 Principal axes and moments of inertia in atomic units:
                           1         2         3
     Eigenvalues --   824.366291642.175142399.73245
           X            0.88634   0.41079  -0.21369
           Y           -0.26600   0.82944   0.49119
           Z            0.37902  -0.37852   0.84443
 This molecule is an asymmetric top.
 Rotational symmetry number  1.
 Warning -- assumption of classical behavior for rotation
           may cause significant error
 Rotational temperatures (Kelvin)      0.10507     0.05274     0.03609
 Rotational constants (GHZ):           2.18925     1.09899     0.75206
 Zero-point vibrational energy     404234.2 (Joules/Mol)
                                   96.61429 (Kcal/Mol)
 Warning -- explicit consideration of  14 degrees of freedom as
           vibrations may cause significant error
 Vibrational temperatures:     69.78   162.02   213.83   273.29   308.88
          (Kelvin)            456.77   482.84   581.39   662.66   712.87
                              732.56   761.12   828.17   834.74   972.90
                             1019.86  1077.52  1123.96  1182.66  1292.51
                             1404.96  1433.19  1462.35  1465.84  1497.20
                             1530.28  1557.12  1596.11  1670.22  1703.39
                             1780.37  1869.58  1889.43  1987.11  2029.16
                             2044.06  2129.75  2139.89  2153.71  2208.22
                             2359.84  2408.01  4423.76  4521.11  4536.22
                             4558.26  4594.83  4617.15  4638.54  5607.37
                             5669.03

 Zero-point correction=                           0.153965 (Hartree/Particle)
 Thermal correction to Energy=                    0.163352
 Thermal correction to Enthalpy=                  0.164296
 Thermal correction to Gibbs Free Energy=         0.119278
 Sum of electronic and zero-point Energies=           -447.375496
 Sum of electronic and thermal Energies=              -447.366109
 Sum of electronic and thermal Enthalpies=            -447.365165
 Sum of electronic and thermal Free Energies=         -447.410183

                     E (Thermal)             CV                S
                      KCal/Mol        Cal/Mol-Kelvin    Cal/Mol-Kelvin
 Total                  102.505             35.895             94.748
 Electronic               0.000              0.000              0.000
 Translational            0.889              2.981             40.636
 Rotational               0.889              2.981             29.564
 Vibrational            100.727             29.934             24.548
 Vibration     1          0.595              1.978              4.878
 Vibration     2          0.607              1.939              3.223
 Vibration     3          0.618              1.904              2.690
 Vibration     4          0.633              1.854              2.228
 Vibration     5          0.645              1.819              2.003
 Vibration     6          0.704              1.640              1.323
 Vibration     7          0.717              1.604              1.233
 Vibration     8          0.769              1.461              0.948
 Vibration     9          0.818              1.338              0.764
 Vibration    10          0.851              1.260              0.670
 Vibration    11          0.864              1.230              0.636
 Vibration    12          0.884              1.186              0.589
 Vibration    13          0.932              1.084              0.494
 Vibration    14          0.937              1.074              0.485

 Optimization completed.
    -- Stationary point found.
 Normal termination of Gaussian 16 at Tue Apr 22 20:54:42 2025.
