 Gaussian 16, Revision C.01,
 Gaussian 16:  AS64L-G16RevC.01  3-Jul-2019

 ----------------------------------------------------------------------
 # opt=(calcfc,tight) freq 6-311+g(d,p) scrf=(smd,solvent=thf) nosymm s
 cf=(qc,fermi,xqc) geom=connectivity int=ultrafine m062x
 ----------------------------------------------------------------------

 --------------------------
 2-Me-ph-anion-opt-freq-thf
 --------------------------
 Symbolic Z-matrix:
 Charge = -1 Multiplicity = 1

 SCF Done:  E(RM062X) =  -270.935332835     A.U. after   16 cycles
 SCF Done:  E(RM062X) =  -270.948453183     A.U. after   14 cycles
 SCF Done:  E(RM062X) =  -270.948812699     A.U. after   13 cycles
 SCF Done:  E(RM062X) =  -270.948817448     A.U. after   11 cycles
 SCF Done:  E(RM062X) =  -270.948817864     A.U. after    9 cycles
 SCF Done:  E(RM062X) =  -270.948817925     A.U. after    9 cycles
 SCF Done:  E(RM062X) =  -270.948817926     A.U. after    6 cycles
 Optimization completed.
    -- Stationary point found.
 Normal termination of Gaussian 16 at Fri May 30 05:09:23 2025.

 ----------------------------------------------------------------------
 #N Geom=AllCheck Guess=TCheck SCRF=Check GenChk RM062X/6-311+G(d,p) Fr
 eq
 ----------------------------------------------------------------------

 Structure from the checkpoint file:  "2-Me-ph-anion-opt-freq-thf.chk"
 --------------------------
 2-Me-ph-anion-opt-freq-thf
 --------------------------
 Charge = -1 Multiplicity = 1

                          Input orientation:
 ---------------------------------------------------------------------
 Center     Atomic      Atomic             Coordinates (Angstroms)
 Number     Number       Type             X           Y           Z
 ---------------------------------------------------------------------
      1          6           0        6.361212    6.995892    5.118460
      2          6           0        5.234683    6.150053    5.174482
      3          1           0        5.331953    5.164787    5.634876
      4          6           0        3.965284    6.479362    4.676718
      5          1           0        3.140864    5.774712    4.756285
      6          6           0        3.766985    7.718235    4.078701
      7          6           0        4.847025    8.599285    3.990120
      8          1           0        4.700774    9.571355    3.522569
      9          6           0        6.105313    8.245571    4.493211
     10          1           0        2.794189    7.999166    3.687227
     11          6           0        7.236554    9.246995    4.357917
     12          1           0        7.645771    9.501443    5.340120
     13          1           0        8.059404    8.821997    3.775028
     14          1           0        6.916233   10.173136    3.871264
 ---------------------------------------------------------------------

 SCF Done:  E(RM062X) =  -270.948817926     A.U. after    1 cycles

 Alpha  occ. eigenvalues --  -10.50000 -10.49744 -10.49728 -10.49591 -10.48954
 Alpha  occ. eigenvalues --  -10.48601 -10.44487  -0.90599  -0.81977  -0.77872
 Alpha  occ. eigenvalues --   -0.72445  -0.62458  -0.60612  -0.52803  -0.47365
 Alpha  occ. eigenvalues --   -0.46250  -0.44491  -0.42680  -0.40984  -0.38288
 Alpha  occ. eigenvalues --   -0.38025  -0.33456  -0.25881  -0.24392  -0.19274
 Alpha virt. eigenvalues --    0.03796   0.04963   0.05760   0.05959   0.06207
 Alpha virt. eigenvalues --    0.07196   0.08030   0.08386   0.09517   0.10246
 Alpha virt. eigenvalues --    0.10566   0.10894   0.12037   0.12984   0.15051

 Mulliken charges:
               1
     1  C   -1.005588
     2  C   -0.019868
     3  H    0.143347
     4  C   -0.266534
     5  H    0.159870
     6  C   -0.271517
     7  C   -0.716147
     8  H    0.157659
     9  C    0.862135
    10  H    0.164066
    11  C   -0.713825
    12  H    0.176192
    13  H    0.177151
    14  H    0.153060
 Sum of Mulliken charges =  -1.00000

 Dipole moment (field-independent basis, Debye):
    X=            -30.6428    Y=            -33.4508    Z=            -24.6781  Tot=             51.6424
 Quadrupole moment (field-independent basis, Debye-Ang):
   XX=           -246.7507   YY=           -279.7994   ZZ=           -177.2014
   XY=           -211.7194   XZ=           -158.3546   YZ=           -173.0867

  Exact polarizability:     155.516       6.478     134.199      16.358     -19.310      99.222
 Approx polarizability:     130.818       5.401     120.145      11.847     -16.411      89.999

                      1                      2                      3
                      A                      A                      A
 Frequencies --    105.6115               189.5743               368.1042
 Red. masses --      1.0669                 2.9186                 2.6052
 Frc consts  --      0.0070                 0.0618                 0.2080
 IR Inten    --      4.1650                16.4786                13.4440

                      4                      5                      6
                      A                      A                      A
 Frequencies --    402.1989               475.8473               525.3812
 Red. masses --      3.2378                 2.8805                 5.3844
 Frc consts  --      0.3086                 0.3843                 0.8757
 IR Inten    --     21.5229                 0.5770                 2.1993

                      7                      8                      9
                      A                      A                      A
 Frequencies --    622.7037               718.0223               755.1919
 Red. masses --      6.7788                 2.2835                 1.4899
 Frc consts  --      1.5487                 0.6936                 0.5006
 IR Inten    --      0.0347                18.3469                74.5452

                     10                     11                     12
                      A                      A                      A
 Frequencies --    796.3409               890.6621               948.0938
 Red. masses --      4.6063                 1.2747                 1.3813
 Frc consts  --      1.7211                 0.5958                 0.7315
 IR Inten    --      0.6566                 0.3871                 0.0936

                     13                     14                     15
                      A                      A                      A
 Frequencies --    980.3376               997.9849              1000.5092
 Red. masses --      2.9207                 2.0551                 1.3118
 Frc consts  --      1.6538                 1.2060                 0.7737
 IR Inten    --      6.9749                 2.5381                 0.0988

                     16                     17                     18
                      A                      A                      A
 Frequencies --   1052.7543              1058.0564              1115.9004
 Red. masses --      1.5454                 2.4649                 1.5123
 Frc consts  --      1.0091                 1.6258                 1.1095
 IR Inten    --      7.5525                 4.5422                11.7498

                     19                     20                     21
                      A                      A                      A
 Frequencies --   1157.1286              1210.3980              1256.8106
 Red. masses --      1.1200                 2.6449                 3.0167
 Frc consts  --      0.8836                 2.2831                 2.8075
 IR Inten    --      0.1717                 9.4760                36.5381

                     22                     23                     24
                      A                      A                      A
 Frequencies --   1292.7467              1395.8357              1440.0444
 Red. masses --      1.9174                 1.2785                 1.8119
 Frc consts  --      1.8880                 1.4676                 2.2138
 IR Inten    --      4.8274                 4.0747                 6.1090

                     25                     26                     27
                      A                      A                      A
 Frequencies --   1455.0209              1471.3785              1486.9178
 Red. masses --      2.4424                 1.0501                 1.1213
 Frc consts  --      3.0465                 1.3394                 1.4607
 IR Inten    --     25.9578                12.0742                11.4849

                     28                     29                     30
                      A                      A                      A
 Frequencies --   1605.9901              1611.3126              3040.1441
 Red. masses --      5.3204                 5.1475                 1.0359
 Frc consts  --      8.0850                 7.8742                 5.6409
 IR Inten    --     11.3690                13.5204                57.6899

                     31                     32                     33
                      A                      A                      A
 Frequencies --   3096.5206              3102.8969              3113.4025
 Red. masses --      1.0862                 1.1010                 1.1024
 Frc consts  --      6.1361                 6.2458                 6.2959
 IR Inten    --     82.4254                30.0639                36.1502

                     34                     35                     36
                      A                      A                      A
 Frequencies --   3148.0457              3163.8398              3193.6302
 Red. masses --      1.0880                 1.0900                 1.0962
 Frc consts  --      6.3527                 6.4285                 6.5875
 IR Inten    --     40.5944                60.8714                49.6367

 - Thermochemistry -
 -------------------
 Temperature   298.150 Kelvin.  Pressure   1.00000 Atm.
 Atom     1 has atomic number  6 and mass  12.00000

 Molecular mass:    91.05478 amu.
 Principal axes and moments of inertia in atomic units:
                           1         2         3
     Eigenvalues --   316.64519 705.545781011.09301
           X            0.76171  -0.59983  -0.24494
           Y            0.64370   0.65756   0.39149
           Z           -0.07376  -0.45588   0.88698
 This molecule is an asymmetric top.
 Rotational symmetry number  1.
 Rotational temperatures (Kelvin)      0.27354     0.12276     0.08566
 Rotational constants (GHZ):           5.69957     2.55794     1.78494
 Zero-point vibrational energy     300533.9 (Joules/Mol)
                                   71.82932 (Kcal/Mol)
 Warning -- explicit consideration of   6 degrees of freedom as
           vibrations may cause significant error
 Vibrational temperatures:    151.95   272.76   529.62   578.67   684.64
          (Kelvin)            755.91   895.93  1033.07  1086.55  1145.76
                             1281.46  1364.10  1410.49  1435.88  1439.51
                             1514.68  1522.31  1605.53  1664.85  1741.49
                             1808.27  1859.97  2008.30  2071.90  2093.45
                             2116.99  2139.34  2310.66  2318.32  4374.09
                             4455.20  4464.38  4479.49  4529.34  4552.06
                             4594.92

 Zero-point correction=                           0.114467 (Hartree/Particle)
 Thermal correction to Energy=                    0.120519
 Thermal correction to Enthalpy=                  0.121463
 Thermal correction to Gibbs Free Energy=         0.084666
 Sum of electronic and zero-point Energies=           -270.834351
 Sum of electronic and thermal Energies=              -270.828299
 Sum of electronic and thermal Enthalpies=            -270.827355
 Sum of electronic and thermal Free Energies=         -270.864152

                     E (Thermal)             CV                S
                      KCal/Mol        Cal/Mol-Kelvin    Cal/Mol-Kelvin
 Total                   75.627             22.744             77.445
 Electronic               0.000              0.000              0.000
 Translational            0.889              2.981             39.439
 Rotational               0.889              2.981             26.915
 Vibrational             73.849             16.782             11.091
 Vibration     1          0.605              1.945              3.348
 Vibration     2          0.633              1.854              2.232
 Vibration     3          0.741              1.538              1.088
 Vibration     4          0.768              1.465              0.955
 Vibration     5          0.832              1.304              0.721
 Vibration     6          0.880              1.194              0.598

 Optimization completed.
    -- Stationary point found.
 Normal termination of Gaussian 16 at Fri May 30 05:10:08 2025.
