 Gaussian 16, Revision C.01,
 Gaussian 16:  AS64L-G16RevC.01  3-Jul-2019

 ----------------------------------------------------------------------
 # opt=(calcfc,tight) freq 6-311+g(d,p) scrf=(smd,solvent=thf) nosymm s
 cf=(qc,fermi,xqc) geom=connectivity int=ultrafine m062x
 ----------------------------------------------------------------------

 ---------------------------
 2-OMe-ph-anion-opt-freq-thf
 ---------------------------
 Symbolic Z-matrix:
 Charge = -1 Multiplicity = 1

 SCF Done:  E(RM062X) =  -346.148016015     A.U. after   17 cycles
 SCF Done:  E(RM062X) =  -346.160186440     A.U. after   14 cycles
 SCF Done:  E(RM062X) =  -346.160485014     A.U. after   13 cycles
 SCF Done:  E(RM062X) =  -346.160486973     A.U. after   10 cycles
 SCF Done:  E(RM062X) =  -346.160487034     A.U. after    8 cycles
 SCF Done:  E(RM062X) =  -346.160487041     A.U. after    7 cycles
 SCF Done:  E(RM062X) =  -346.160487042     A.U. after    6 cycles
 SCF Done:  E(RM062X) =  -346.160487042     A.U. after    5 cycles
 Optimization completed.
    -- Stationary point found.
 Normal termination of Gaussian 16 at Fri May 30 05:06:51 2025.

 ----------------------------------------------------------------------
 #N Geom=AllCheck Guess=TCheck SCRF=Check GenChk RM062X/6-311+G(d,p) Fr
 eq
 ----------------------------------------------------------------------

 Structure from the checkpoint file:  "2-OMe-ph-anion-opt-freq-thf.chk"
 ---------------------------
 2-OMe-ph-anion-opt-freq-thf
 ---------------------------
 Charge = -1 Multiplicity = 1

                          Input orientation:
 ---------------------------------------------------------------------
 Center     Atomic      Atomic             Coordinates (Angstroms)
 Number     Number       Type             X           Y           Z
 ---------------------------------------------------------------------
      1          6           0        6.281785    6.941812    5.249268
      2          6           0        5.174800    6.160981    5.616259
      3          1           0        5.313379    5.358883    6.344030
      4          6           0        3.870229    6.326676    5.115515
      5          1           0        3.060887    5.682218    5.448021
      6          6           0        3.631355    7.328164    4.188219
      7          6           0        4.687352    8.147986    3.772474
      8          6           0        5.965970    7.938430    4.304349
      9          1           0        2.638122    7.486438    3.779925
     10          1           0        4.483407    8.926593    3.046285
     11          8           0        7.025556    8.739201    3.908130
     12          6           0        6.784291    9.742576    2.952020
     13          1           0        6.426913    9.326193    2.002609
     14          1           0        6.058439   10.483320    3.308183
     15          1           0        7.738498   10.241186    2.779692
 ---------------------------------------------------------------------

 SCF Done:  E(RM062X) =  -346.160487042     A.U. after    1 cycles

 Alpha  occ. eigenvalues --  -19.60465 -10.55257 -10.54751 -10.50282 -10.49921
 Alpha  occ. eigenvalues --  -10.49434 -10.48822 -10.44396  -1.14086  -0.90347
 Alpha  occ. eigenvalues --   -0.80200  -0.78570  -0.73964  -0.63094  -0.62142
 Alpha  occ. eigenvalues --   -0.56107  -0.50825  -0.50469  -0.49785  -0.46459
 Alpha  occ. eigenvalues --   -0.42921  -0.40773  -0.40228  -0.36665  -0.35285
 Alpha  occ. eigenvalues --   -0.34968  -0.25897  -0.22980  -0.19859
 Alpha virt. eigenvalues --    0.03561   0.04529   0.05548   0.06300   0.06751
 Alpha virt. eigenvalues --    0.06793   0.07355   0.07457   0.08429   0.09909
 Alpha virt. eigenvalues --    0.10358   0.10811   0.12036   0.12369   0.14245

 Mulliken charges:
               1
     1  C   -1.136469
     2  C   -0.117138
     3  H    0.144694
     4  C   -0.225450
     5  H    0.158603
     6  C   -0.496736
     7  C    0.367500
     8  C   -0.012720
     9  H    0.165488
    10  H    0.164495
    11  O   -0.152229
    12  C   -0.359702
    13  H    0.160742
    14  H    0.160409
    15  H    0.178513
 Sum of Mulliken charges =  -1.00000

 Dipole moment (field-independent basis, Debye):
    X=            -31.2082    Y=            -32.6919    Z=            -26.0872  Tot=             52.1848
 Quadrupole moment (field-independent basis, Debye-Ang):
   XX=           -260.2415   YY=           -271.8823   ZZ=           -192.5947
   XY=           -212.7291   XZ=           -169.6865   YZ=           -183.3388

  Exact polarizability:     153.887      10.834     127.873       8.600     -31.501     117.507
 Approx polarizability:     134.634       9.358     114.287       6.506     -25.547     105.455

                      1                      2                      3
                      A                      A                      A
 Frequencies --     84.6501               186.8573               296.1916
 Red. masses --      3.0929                 3.3437                 3.0852
 Frc consts  --      0.0131                 0.0688                 0.1595
 IR Inten    --      4.3583                 5.6557                 7.1740

                      4                      5                      6
                      A                      A                      A
 Frequencies --    311.1135               418.9449               470.1436
 Red. masses --      1.1722                 3.3057                 5.5058
 Frc consts  --      0.0668                 0.3418                 0.7170
 IR Inten    --      0.2263                14.9475                 9.7565

                      7                      8                      9
                      A                      A                      A
 Frequencies --    539.1308               548.9646               617.2242
 Red. masses --      3.1309                 5.2265                 6.7830
 Frc consts  --      0.5362                 0.9280                 1.5225
 IR Inten    --      1.0965                10.8624                 0.9669

                     10                     11                     12
                      A                      A                      A
 Frequencies --    708.1201               774.2288               795.5146
 Red. masses --      2.1112                 1.9474                 5.2604
 Frc consts  --      0.6237                 0.6878                 1.9614
 IR Inten    --     24.8242               104.4865                37.7610

                     13                     14                     15
                      A                      A                      A
 Frequencies --    868.2507               944.0138               978.5694
 Red. masses --      1.3124                 1.4033                 6.7852
 Frc consts  --      0.5829                 0.7368                 3.8282
 IR Inten    --      3.0018                 1.3962                 9.2252

                     16                     17                     18
                      A                      A                      A
 Frequencies --    987.7578              1044.9835              1081.6071
 Red. masses --      1.2841                 4.0188                 2.8623
 Frc consts  --      0.7381                 2.5856                 1.9729
 IR Inten    --      0.0368                13.6305                48.2366

                     19                     20                     21
                      A                      A                      A
 Frequencies --   1123.9294              1166.6868              1178.5243
 Red. masses --      1.6216                 1.1865                 1.2893
 Frc consts  --      1.2069                 0.9515                 1.0550
 IR Inten    --     28.0824                12.0949                 2.6988

                     22                     23                     24
                      A                      A                      A
 Frequencies --   1185.3265              1227.3501              1286.2478
 Red. masses --      2.0762                 2.2943                 1.5246
 Frc consts  --      1.7187                 2.0362                 1.4861
 IR Inten    --    251.1880               292.2782                 9.7824

                     25                     26                     27
                      A                      A                      A
 Frequencies --   1315.8566              1441.1010              1454.3793
 Red. masses --      4.8834                 1.8764                 2.2554
 Frc consts  --      4.9818                 2.2959                 2.8107
 IR Inten    --      6.6979               127.4811                28.0308

                     28                     29                     30
                      A                      A                      A
 Frequencies --   1486.8158              1496.9429              1509.9980
 Red. masses --      1.2216                 1.0441                 1.0524
 Frc consts  --      1.5911                 1.3784                 1.4138
 IR Inten    --     11.1942                10.8798                23.1297

                     31                     32                     33
                      A                      A                      A
 Frequencies --   1597.1485              1622.1165              3021.8241
 Red. masses --      4.9356                 5.4419                 1.0352
 Frc consts  --      7.4179                 8.4365                 5.5696
 IR Inten    --     82.3419                23.2032                78.1469

                     34                     35                     36
                      A                      A                      A
 Frequencies --   3078.9796              3093.1603              3144.6348
 Red. masses --      1.1053                 1.0863                 1.0988
 Frc consts  --      6.1734                 6.1237                 6.4022
 IR Inten    --     62.1660                82.8060                40.2021

                     37                     38                     39
                      A                      A                      A
 Frequencies --   3168.6026              3188.9906              3207.7247
 Red. masses --      1.0878                 1.0924                 1.0936
 Frc consts  --      6.4350                 6.5456                 6.6297
 IR Inten    --     26.1310                44.2903                33.8250

 - Thermochemistry -
 -------------------
 Temperature   298.150 Kelvin.  Pressure   1.00000 Atm.
 Atom     1 has atomic number  6 and mass  12.00000

 Molecular mass:   107.04969 amu.
 Principal axes and moments of inertia in atomic units:
                           1         2         3
     Eigenvalues --   348.936701130.359841467.83537
           X            0.60150   0.77250  -0.20358
           Y            0.67843  -0.35939   0.64076
           Z           -0.42182   0.52353   0.74026
 This molecule is an asymmetric top.
 Rotational symmetry number  1.
 Rotational temperatures (Kelvin)      0.24822     0.07663     0.05901
 Rotational constants (GHZ):           5.17212     1.59661     1.22953
 Zero-point vibrational energy     314932.5 (Joules/Mol)
                                   75.27068 (Kcal/Mol)
 Warning -- explicit consideration of   9 degrees of freedom as
           vibrations may cause significant error
 Vibrational temperatures:    121.79   268.85   426.15   447.62   602.77
          (Kelvin)            676.43   775.69   789.84   888.05  1018.83
                             1113.94  1144.57  1249.22  1358.23  1407.94
                             1421.16  1503.50  1556.19  1617.08  1678.60
                             1695.63  1705.42  1765.88  1850.62  1893.22
                             2073.42  2092.53  2139.20  2153.77  2172.55
                             2297.94  2333.86  4347.73  4429.96  4450.37
                             4524.43  4558.91  4588.25  4615.20

 Zero-point correction=                           0.119951 (Hartree/Particle)
 Thermal correction to Energy=                    0.126705
 Thermal correction to Enthalpy=                  0.127649
 Thermal correction to Gibbs Free Energy=         0.088928
 Sum of electronic and zero-point Energies=           -346.040536
 Sum of electronic and thermal Energies=              -346.033783
 Sum of electronic and thermal Enthalpies=            -346.032838
 Sum of electronic and thermal Free Energies=         -346.071559

                     E (Thermal)             CV                S
                      KCal/Mol        Cal/Mol-Kelvin    Cal/Mol-Kelvin
 Total                   79.508             25.645             81.495
 Electronic               0.000              0.000              0.000
 Translational            0.889              2.981             39.921
 Rotational               0.889              2.981             27.851
 Vibrational             77.731             19.683             13.723
 Vibration     1          0.601              1.960              3.780
 Vibration     2          0.632              1.858              2.259
 Vibration     3          0.690              1.681              1.438
 Vibration     4          0.700              1.653              1.356
 Vibration     5          0.782              1.429              0.896
 Vibration     6          0.827              1.316              0.737
 Vibration     7          0.894              1.164              0.567
 Vibration     8          0.904              1.142              0.546
 Vibration     9          0.977              0.995              0.421

 Optimization completed.
    -- Stationary point found.
 Normal termination of Gaussian 16 at Fri May 30 05:07:50 2025.
