 Gaussian 16, Revision C.01,
 Gaussian 16:  AS64L-G16RevC.01  3-Jul-2019

 ----------------------------------------------------------------------
 # opt=(calcfc,tight) freq 6-311+g(d,p) nosymm scf=(qc,fermi,xqc) geom=
 connectivity int=ultrafine m062x
 ----------------------------------------------------------------------

 --------------------------
 3-5-diMe-phboh2-opt-freq-2
 --------------------------
 Symbolic Z-matrix:
 Charge =  0 Multiplicity = 1

 SCF Done:  E(RM062X) =  -486.838224951     A.U. after   14 cycles
 SCF Done:  E(RM062X) =  -486.838224951     A.U. after    5 cycles
 Optimization completed.
    -- Stationary point found.
 Normal termination of Gaussian 16 at Tue May  6 17:12:13 2025.

 ----------------------------------------------------------------------
 #N Geom=AllCheck Guess=TCheck SCRF=Check GenChk RM062X/6-311+G(d,p) Fr
 eq
 ----------------------------------------------------------------------

 Structure from the checkpoint file:  "3-5-diMe-phboh2-opt-freq-2.chk"
 --------------------------
 3-5-diMe-phboh2-opt-freq-2
 --------------------------
 Charge =  0 Multiplicity = 1

                          Input orientation:
 ---------------------------------------------------------------------
 Center     Atomic      Atomic             Coordinates (Angstroms)
 Number     Number       Type             X           Y           Z
 ---------------------------------------------------------------------
      1          8           0        8.693214    7.464603    5.572375
      2          1           0        9.496408    7.148410    5.995679
      3          6           0        6.250784    6.994338    5.163568
      4          5           0        7.643699    6.617708    5.772871
      5          8           0        7.878020    5.483779    6.504764
      6          1           0        7.102189    4.938169    6.642838
      7          6           0        5.144047    6.144007    5.242115
      8          1           0        5.224614    5.173260    5.727849
      9          6           0        3.908106    6.497223    4.703866
     10          6           0        3.796075    7.732207    4.066222
     11          6           0        4.877562    8.606816    3.960231
     12          6           0        6.096549    8.223853    4.515756
     13          1           0        6.951036    8.889755    4.447262
     14          1           0        2.838700    8.020303    3.639127
     15          6           0        4.732588    9.919788    3.234458
     16          1           0        5.477962   10.639953    3.574129
     17          1           0        4.869041    9.781583    2.158299
     18          1           0        3.741730   10.350076    3.390250
     19          6           0        2.713897    5.585960    4.828564
     20          1           0        3.021891    4.546421    4.951195
     21          1           0        2.108538    5.859156    5.697310
     22          1           0        2.074759    5.650887    3.946436
 ---------------------------------------------------------------------

 SCF Done:  E(RM062X) =  -486.838224951     A.U. after    1 cycles

 Alpha  occ. eigenvalues --  -19.63629 -19.62848 -10.55244 -10.54977 -10.54388
 Alpha  occ. eigenvalues --  -10.54014 -10.53653 -10.53556 -10.53222 -10.52624
 Alpha  occ. eigenvalues --   -7.08117  -1.16667  -1.12942  -0.96622  -0.88331
 Alpha  occ. eigenvalues --   -0.85674  -0.78566  -0.77221  -0.68979  -0.65614
 Alpha  occ. eigenvalues --   -0.64723  -0.62012  -0.57592  -0.54274  -0.51575
 Alpha  occ. eigenvalues --   -0.49803  -0.48770  -0.48242  -0.47540  -0.47150
 Alpha  occ. eigenvalues --   -0.46469  -0.45068  -0.44474  -0.43679  -0.41166
 Alpha  occ. eigenvalues --   -0.40281  -0.39424  -0.37472  -0.30239  -0.29278
 Alpha virt. eigenvalues --   -0.00338  -0.00195   0.01529   0.01789   0.02033
 Alpha virt. eigenvalues --    0.03196   0.03318   0.03705   0.04425   0.05224
 Alpha virt. eigenvalues --    0.06054   0.06450   0.06712   0.08176   0.08457

 Mulliken charges:
               1
     1  O   -0.344996
     2  H    0.299281
     3  C   -0.373019
     4  B    0.442221
     5  O   -0.329768
     6  H    0.251716
     7  C   -0.703305
     8  H    0.111180
     9  C    1.013754
    10  C   -0.817854
    11  C    1.039460
    12  C   -0.803325
    13  H    0.174867
    14  H    0.154496
    15  C   -0.588378
    16  H    0.170407
    17  H    0.201437
    18  H    0.165668
    19  C   -0.599085
    20  H    0.164646
    21  H    0.201843
    22  H    0.168755
 Sum of Mulliken charges =   0.00000

 Dipole moment (field-independent basis, Debye):
    X=             -1.4204    Y=             -0.7008    Z=              0.1005  Tot=              1.5871
 Quadrupole moment (field-independent basis, Debye-Ang):
   XX=            -77.2465   YY=            -71.5101   ZZ=            -65.3322
   XY=            -13.1554   XZ=             -4.3818   YZ=             -6.5611

  Exact polarizability:     130.028       5.792     117.379      14.921     -23.756      85.562
 Approx polarizability:     153.785       6.824     142.773      14.645     -24.738     108.672

                      1                      2                      3
                      A                      A                      A
 Frequencies --     25.2977                39.3197                58.3421
 Red. masses --      5.2545                 1.0212                 1.0170
 Frc consts  --      0.0020                 0.0009                 0.0020
 IR Inten    --      2.7085                 0.2541                 0.3644

                      4                      5                      6
                      A                      A                      A
 Frequencies --    118.9697               141.1115               200.4659
 Red. masses --      4.3819                 4.6409                 3.0599
 Frc consts  --      0.0365                 0.0544                 0.0725
 IR Inten    --      1.8963                 1.9199                 1.3888

                      7                      8                      9
                      A                      A                      A
 Frequencies --    223.6108               259.6743               337.2243
 Red. masses --      2.9812                 2.7588                 4.8545
 Frc consts  --      0.0878                 0.1096                 0.3253
 IR Inten    --      0.9743                 1.2057                 5.6881

                     10                     11                     12
                      A                      A                      A
 Frequencies --    343.7805               444.1252               473.8682
 Red. masses --      3.9401                 2.7438                 1.4133
 Frc consts  --      0.2744                 0.3189                 0.1870
 IR Inten    --      5.2612                 0.9489               110.5409

                     13                     14                     15
                      A                      A                      A
 Frequencies --    479.3771               522.3352               529.8379
 Red. masses --      2.2868                 3.2195                 3.2311
 Frc consts  --      0.3096                 0.5175                 0.5344
 IR Inten    --     35.5277                23.0911                22.7049

                     16                     17                     18
                      A                      A                      A
 Frequencies --    536.6549               567.0976               574.6126
 Red. masses --      4.9219                 1.3732                 3.7798
 Frc consts  --      0.8352                 0.2602                 0.7353
 IR Inten    --      2.4923                40.4637                17.9410

                     19                     20                     21
                      A                      A                      A
 Frequencies --    680.1037               731.0172               876.0467
 Red. masses --      4.0443                 2.6222                 1.4905
 Frc consts  --      1.1022                 0.8256                 0.6740
 IR Inten    --     20.5770                64.6642                13.7520

                     22                     23                     24
                      A                      A                      A
 Frequencies --    882.8219               917.5710               949.7452
 Red. masses --      5.3483                 1.3349                 1.3501
 Frc consts  --      2.4559                 0.6622                 0.7175
 IR Inten    --      0.9305                 0.8182                 0.8058

                     25                     26                     27
                      A                      A                      A
 Frequencies --    965.0327               993.5763              1017.0596
 Red. masses --      2.9056                 1.5053                 1.5242
 Frc consts  --      1.5943                 0.8755                 0.9289
 IR Inten    --      2.6784                95.0005                40.7590

                     28                     29                     30
                      A                      A                      A
 Frequencies --   1018.0705              1036.1885              1037.1732
 Red. masses --      4.1165                 1.4144                 1.5658
 Frc consts  --      2.5138                 0.8947                 0.9924
 IR Inten    --     21.4490               123.9807                 1.8010

                     31                     32                     33
                      A                      A                      A
 Frequencies --   1064.5062              1068.5475              1169.7085
 Red. masses --      1.5500                 1.5876                 1.5291
 Frc consts  --      1.0349                 1.0680                 1.2327
 IR Inten    --      3.3111                 8.5693                19.3481

                     34                     35                     36
                      A                      A                      A
 Frequencies --   1200.7701              1286.3709              1292.1933
 Red. masses --      1.3990                 3.0053                 2.6377
 Frc consts  --      1.1885                 2.9300                 2.5950
 IR Inten    --      3.6201                76.6563                10.6298

                     37                     38                     39
                      A                      A                      A
 Frequencies --   1338.8453              1394.7714              1408.3680
 Red. masses --      1.7444                 2.6775                 3.2496
 Frc consts  --      1.8423                 3.0689                 3.7976
 IR Inten    --      9.1941               323.8633               202.2904

                     40                     41                     42
                      A                      A                      A
 Frequencies --   1414.6465              1424.8845              1469.8807
 Red. masses --      1.3783                 1.9301                 1.6120
 Frc consts  --      1.6252                 2.3089                 2.0520
 IR Inten    --     12.7971               143.6294                45.8322

                     43                     44                     45
                      A                      A                      A
 Frequencies --   1473.1072              1494.9813              1496.0130
 Red. masses --      2.2281                 1.0498                 1.0531
 Frc consts  --      2.8488                 1.3824                 1.3887
 IR Inten    --     76.6682                15.5719                 2.0559

                     46                     47                     48
                      A                      A                      A
 Frequencies --   1506.2895              1526.0109              1669.1525
 Red. masses --      1.3320                 1.7607                 6.0709
 Frc consts  --      1.7806                 2.4158                 9.9655
 IR Inten    --     44.8029                 2.0598                11.0116

                     49                     50                     51
                      A                      A                      A
 Frequencies --   1673.3306              3061.6246              3062.0367
 Red. masses --      5.9030                 1.0377                 1.0377
 Frc consts  --      9.7384                 5.7310                 5.7327
 IR Inten    --     11.2268                30.3403                11.9161

                     52                     53                     54
                      A                      A                      A
 Frequencies --   3125.3826              3125.6727              3146.6600
 Red. masses --      1.0988                 1.0990                 1.1016
 Frc consts  --      6.3239                 6.3259                 6.4264
 IR Inten    --      8.9477                13.3393                 2.5352

                     55                     56                     57
                      A                      A                      A
 Frequencies --   3149.4706              3151.5198              3173.5349
 Red. masses --      1.1028                 1.0905                 1.0906
 Frc consts  --      6.4450                 6.3811                 6.4715
 IR Inten    --      9.5507                33.9295                11.5038

                     58                     59                     60
                      A                      A                      A
 Frequencies --   3197.2898              3909.6007              3947.7968
 Red. masses --      1.0910                 1.0653                 1.0659
 Frc consts  --      6.5711                 9.5933                 9.7876
 IR Inten    --      2.7753               107.1449                52.3441

 - Thermochemistry -
 -------------------
 Temperature   298.150 Kelvin.  Pressure   1.00000 Atm.
 Atom     1 has atomic number  8 and mass  15.99491

 Molecular mass:   150.08521 amu.
 Principal axes and moments of inertia in atomic units:
                           1         2         3
     Eigenvalues --  1191.779212251.388863419.33054
           X            0.88769   0.38355  -0.25475
           Y           -0.24573   0.86252   0.44234
           Z            0.38938  -0.33007   0.85991
 This molecule is an asymmetric top.
 Rotational symmetry number  1.
 Warning -- assumption of classical behavior for rotation
           may cause significant error
 Rotational temperatures (Kelvin)      0.07268     0.03847     0.02533
 Rotational constants (GHZ):           1.51433     0.80161     0.52781
 Zero-point vibrational energy     474935.9 (Joules/Mol)
                                  113.51240 (Kcal/Mol)
 Warning -- explicit consideration of  18 degrees of freedom as
           vibrations may cause significant error
 Vibrational temperatures:     36.40    56.57    83.94   171.17   203.03
          (Kelvin)            288.43   321.73   373.61   485.19   494.62
                              639.00   681.79   689.72   751.52   762.32
                              772.13   815.93   826.74   978.52  1051.77
                             1260.44  1270.18  1320.18  1366.47  1388.47
                             1429.53  1463.32  1464.78  1490.84  1492.26
                             1531.59  1537.40  1682.95  1727.64  1850.80
                             1859.18  1926.30  2006.77  2026.33  2035.36
                             2050.09  2114.83  2119.47  2150.94  2152.43
                             2167.21  2195.59  2401.54  2407.55  4404.99
                             4405.59  4496.73  4497.15  4527.34  4531.39
                             4534.33  4566.01  4600.19  5625.04  5680.00

 Zero-point correction=                           0.180894 (Hartree/Particle)
 Thermal correction to Energy=                    0.192499
 Thermal correction to Enthalpy=                  0.193443
 Thermal correction to Gibbs Free Energy=         0.141787
 Sum of electronic and zero-point Energies=           -486.657331
 Sum of electronic and thermal Energies=              -486.645726
 Sum of electronic and thermal Enthalpies=            -486.644782
 Sum of electronic and thermal Free Energies=         -486.696438

                     E (Thermal)             CV                S
                      KCal/Mol        Cal/Mol-Kelvin    Cal/Mol-Kelvin
 Total                  120.795             42.288            108.721
 Electronic               0.000              0.000              0.000
 Translational            0.889              2.981             40.928
 Rotational               0.889              2.981             30.596
 Vibrational            119.018             36.326             37.197
 Vibration     1          0.593              1.985              6.168
 Vibration     2          0.594              1.981              5.293
 Vibration     3          0.596              1.974              4.512
 Vibration     4          0.609              1.934              3.117
 Vibration     5          0.615              1.912              2.789
 Vibration     6          0.638              1.839              2.129
 Vibration     7          0.649              1.805              1.930
 Vibration     8          0.668              1.746              1.664
 Vibration     9          0.718              1.601              1.225
 Vibration    10          0.723              1.588              1.195
 Vibration    11          0.804              1.374              0.814
 Vibration    12          0.831              1.308              0.727
 Vibration    13          0.836              1.296              0.712
 Vibration    14          0.877              1.201              0.605
 Vibration    15          0.885              1.184              0.588
 Vibration    16          0.892              1.169              0.573
 Vibration    17          0.923              1.102              0.510
 Vibration    18          0.931              1.086              0.495

 Optimization completed.
    -- Stationary point found.
 Normal termination of Gaussian 16 at Tue May  6 17:14:36 2025.
