 Gaussian 16, Revision C.01,
 Gaussian 16:  AS64L-G16RevC.01  3-Jul-2019

 ----------------------------------------------------------------------
 # opt=(calcfc,tight) freq 6-311+g(d,p) scrf=(smd,solvent=thf) nosymm s
 cf=(qc,fermi,xqc) geom=connectivity int=ultrafine m062x
 ----------------------------------------------------------------------

 ------------------------
 3-br-phboh2-opt-freq-thf
 ------------------------
 Symbolic Z-matrix:
 Charge =  0 Multiplicity = 1

 SCF Done:  E(RM062X) =  -2981.81103210     A.U. after   14 cycles
 SCF Done:  E(RM062X) =  -2981.81240894     A.U. after   12 cycles
 SCF Done:  E(RM062X) =  -2981.81241002     A.U. after    9 cycles
 SCF Done:  E(RM062X) =  -2981.81241002     A.U. after    8 cycles
 SCF Done:  E(RM062X) =  -2981.81241002     A.U. after    6 cycles
 Optimization completed.
    -- Stationary point found.
 Normal termination of Gaussian 16 at Wed Apr 30 05:03:05 2025.

 ----------------------------------------------------------------------
 #N Geom=AllCheck Guess=TCheck SCRF=Check GenChk RM062X/6-311+G(d,p) Fr
 eq
 ----------------------------------------------------------------------

 Structure from the checkpoint file:  "3-br-phboh2-opt-freq-thf.chk"
 ------------------------
 3-br-phboh2-opt-freq-thf
 ------------------------
 Charge =  0 Multiplicity = 1

                          Input orientation:
 ---------------------------------------------------------------------
 Center     Atomic      Atomic             Coordinates (Angstroms)
 Number     Number       Type             X           Y           Z
 ---------------------------------------------------------------------
      1          8           0        8.680504    7.472600    5.562945
      2          1           0        9.501152    7.167119    5.966698
      3          6           0        6.240438    6.996698    5.175695
      4          5           0        7.642544    6.615485    5.777179
      5          8           0        7.882836    5.481768    6.499480
      6          1           0        7.115783    4.916522    6.631759
      7          6           0        5.114783    6.175688    5.300071
      8          1           0        5.173644    5.227202    5.825828
      9          6           0        3.890761    6.548343    4.754462
     10          1           0        3.026554    5.902693    4.857468
     11          6           0        3.765022    7.753422    4.070593
     12          6           0        4.883938    8.567942    3.947074
     13          6           0        6.110469    8.208285    4.485100
     14          1           0        6.969026    8.859895    4.374485
     15          1           0        2.814779    8.049297    3.643429
     16         35           0        4.727294   10.222665    3.012128
 ---------------------------------------------------------------------

 SCF Done:  E(RM062X) =  -2981.81241002     A.U. after    1 cycles

 Alpha  occ. eigenvalues -- -485.33712 -63.32902 -57.15646 -57.15394 -57.15388
 Alpha  occ. eigenvalues --  -19.63956 -19.63387 -10.60736 -10.56151 -10.55898
 Alpha  occ. eigenvalues --  -10.55643 -10.55493 -10.54198  -9.01617  -7.08884
 Alpha  occ. eigenvalues --   -6.84403  -6.83389  -6.83376  -2.87560  -2.87207
 Alpha  occ. eigenvalues --   -2.87190  -2.86292  -2.86291  -1.16988  -1.13331
 Alpha  occ. eigenvalues --   -0.98513  -0.90397  -0.85879  -0.82063  -0.70699
 Alpha  occ. eigenvalues --   -0.69133  -0.65207  -0.62679  -0.59517  -0.54320
 Alpha  occ. eigenvalues --   -0.52697  -0.50843  -0.48688  -0.48550  -0.46041
 Alpha  occ. eigenvalues --   -0.45872  -0.45767  -0.41145  -0.40776  -0.39220
 Alpha  occ. eigenvalues --   -0.38070  -0.35151  -0.32300  -0.30206
 Alpha virt. eigenvalues --   -0.01410  -0.00100   0.00481   0.01536   0.01810
 Alpha virt. eigenvalues --    0.02117   0.03034   0.03676   0.04689   0.05225
 Alpha virt. eigenvalues --    0.05518   0.06873   0.07747   0.08559   0.08643

 Mulliken charges:
               1
     1  O   -0.400306
     2  H    0.332272
     3  C   -0.295118
     4  B    0.522993
     5  O   -0.401254
     6  H    0.286055
     7  C   -0.294142
     8  H    0.175514
     9  C   -0.068097
    10  H    0.198633
    11  C   -0.492069
    12  C    0.833249
    13  C   -0.635541
    14  H    0.210813
    15  H    0.207280
    16  Br  -0.180283
 Sum of Mulliken charges =   0.00000

 Dipole moment (field-independent basis, Debye):
    X=             -0.9736    Y=             -3.4367    Z=              1.6700  Tot=              3.9431
 Quadrupole moment (field-independent basis, Debye-Ang):
   XX=            -74.6778   YY=           -120.6581   ZZ=            -56.9684
   XY=            -23.4418   XZ=              6.1596   YZ=             -5.8362

  Exact polarizability:     144.151       0.808     150.057      18.402     -39.433     103.536
 Approx polarizability:     140.499       3.534     145.706      14.554     -33.766     104.083

                      1                      2                      3
                      A                      A                      A
 Frequencies --     31.5272               115.1244               127.1934
 Red. masses --      5.9166                 8.9005                 5.0480
 Frc consts  --      0.0035                 0.0695                 0.0481
 IR Inten    --      3.2378                 0.8052                 0.5423

                      4                      5                      6
                      A                      A                      A
 Frequencies --    178.4592               251.5484               303.1655
 Red. masses --      4.4096                 6.2575                 7.9890
 Frc consts  --      0.0827                 0.2333                 0.4326
 IR Inten    --      0.3785                 5.6916                 5.4406

                      7                      8                      9
                      A                      A                      A
 Frequencies --    345.1703               413.2623               445.4632
 Red. masses --      6.5948                 2.8131                 4.2449
 Frc consts  --      0.4629                 0.2831                 0.4963
 IR Inten    --      7.1619                12.0003                23.8014

                     10                     11                     12
                      A                      A                      A
 Frequencies --    451.4101               473.6344               533.6454
 Red. masses --      1.5700                 1.8869                 3.8403
 Frc consts  --      0.1885                 0.2494                 0.6443
 IR Inten    --    167.1033                56.0261                47.9047

                     13                     14                     15
                      A                      A                      A
 Frequencies --    552.7900               663.0220               668.6359
 Red. masses --      1.3897                 5.7149                 6.8819
 Frc consts  --      0.2502                 1.4802                 1.8127
 IR Inten    --     43.0040                39.0758                13.4840

                     16                     17                     18
                      A                      A                      A
 Frequencies --    713.4645               781.9339               808.1521
 Red. masses --      2.3004                 6.8360                 1.5408
 Frc consts  --      0.6899                 2.4626                 0.5929
 IR Inten    --    113.5480                57.1274                35.7679

                     19                     20                     21
                      A                      A                      A
 Frequencies --    936.6468               945.2347               989.7088
 Red. masses --      1.3940                 1.3676                 1.5229
 Frc consts  --      0.7206                 0.7199                 0.8789
 IR Inten    --      6.4617                 0.3526               203.6249

                     22                     23                     24
                      A                      A                      A
 Frequencies --   1012.1460              1013.9143              1030.0663
 Red. masses --      3.7548                 1.4120                 1.4770
 Frc consts  --      2.2663                 0.8552                 0.9233
 IR Inten    --      4.6522                 1.8130               171.4021

                     25                     26                     27
                      A                      A                      A
 Frequencies --   1101.8578              1119.2617              1150.1684
 Red. masses --      3.2235                 1.6309                 1.8051
 Frc consts  --      2.3058                 1.2038                 1.4069
 IR Inten    --     14.8888                10.2217                19.7810

                     28                     29                     30
                      A                      A                      A
 Frequencies --   1197.0600              1287.7837              1334.0395
 Red. masses --      1.1793                 3.3884                 1.5959
 Frc consts  --      0.9957                 3.3108                 1.6734
 IR Inten    --      7.3845                 7.5455                66.1160

                     31                     32                     33
                      A                      A                      A
 Frequencies --   1366.9228              1399.8029              1453.9776
 Red. masses --      3.6724                 5.4400                 3.3735
 Frc consts  --      4.0429                 6.2804                 4.2019
 IR Inten    --    677.5782               300.1904               254.5557

                     34                     35                     36
                      A                      A                      A
 Frequencies --   1519.2749              1627.3825              1663.9992
 Red. masses --      2.5654                 6.0216                 6.2765
 Frc consts  --      3.4888                 9.3960                10.2394
 IR Inten    --     17.3557                19.0213                15.3196

                     37                     38                     39
                      A                      A                      A
 Frequencies --   3186.3895              3216.9609              3224.7448
 Red. masses --      1.0896                 1.0912                 1.0924
 Frc consts  --      6.5178                 6.6534                 6.6933
 IR Inten    --     12.0782                 3.7182                 1.7733

                     40                     41                     42
                      A                      A                      A
 Frequencies --   3230.1264              3852.2183              3882.6995
 Red. masses --      1.0975                 1.0652                 1.0661
 Frc consts  --      6.7465                 9.3134                 9.4689
 IR Inten    --      1.8213               199.8574               136.3710

 - Thermochemistry -
 -------------------
 Temperature   298.150 Kelvin.  Pressure   1.00000 Atm.
 Atom     1 has atomic number  8 and mass  15.99491

 Molecular mass:   199.96442 amu.
 Principal axes and moments of inertia in atomic units:
                           1         2         3
     Eigenvalues --   939.060803948.528644887.25674
           X           -0.51066   0.82632  -0.23753
           Y            0.68801   0.55841   0.46348
           Z           -0.51562  -0.07325   0.85368
 This molecule is an asymmetric top.
 Rotational symmetry number  1.
 Warning -- assumption of classical behavior for rotation
           may cause significant error
 Rotational temperatures (Kelvin)      0.09223     0.02194     0.01772
 Rotational constants (GHZ):           1.92186     0.45707     0.36927
 Zero-point vibrational energy     302655.1 (Joules/Mol)
                                   72.33632 (Kcal/Mol)
 Warning -- explicit consideration of  13 degrees of freedom as
           vibrations may cause significant error
 Vibrational temperatures:     45.36   165.64   183.00   256.76   361.92
          (Kelvin)            436.19   496.62   594.59   640.92   649.48
                              681.45   767.80   795.34   953.94   962.02
                             1026.52  1125.03  1162.75  1347.63  1359.98
                             1423.97  1456.25  1458.80  1482.04  1585.33
                             1610.37  1654.84  1722.30  1852.83  1919.39
                             1966.70  2014.00  2091.95  2185.90  2341.44
                             2394.12  4584.50  4628.49  4639.69  4647.43
                             5542.48  5586.34

 Zero-point correction=                           0.115275 (Hartree/Particle)
 Thermal correction to Energy=                    0.124588
 Thermal correction to Enthalpy=                  0.125532
 Thermal correction to Gibbs Free Energy=         0.078819
 Sum of electronic and zero-point Energies=          -2981.697135
 Sum of electronic and thermal Energies=             -2981.687822
 Sum of electronic and thermal Enthalpies=           -2981.686878
 Sum of electronic and thermal Free Energies=        -2981.733592

                     E (Thermal)             CV                S
                      KCal/Mol        Cal/Mol-Kelvin    Cal/Mol-Kelvin
 Total                   78.180             34.492             98.317
 Electronic               0.000              0.000              0.000
 Translational            0.889              2.981             41.784
 Rotational               0.889              2.981             31.272
 Vibrational             76.403             28.530             25.261
 Vibration     1          0.594              1.983              5.731
 Vibration     2          0.608              1.937              3.181
 Vibration     3          0.611              1.926              2.988
 Vibration     4          0.629              1.869              2.344
 Vibration     5          0.664              1.760              1.720
 Vibration     6          0.695              1.668              1.399
 Vibration     7          0.724              1.585              1.188
 Vibration     8          0.777              1.441              0.915
 Vibration     9          0.805              1.371              0.810
 Vibration    10          0.810              1.358              0.792
 Vibration    11          0.830              1.309              0.727
 Vibration    12          0.889              1.176              0.579
 Vibration    13          0.908              1.134              0.538

 Optimization completed.
    -- Stationary point found.
 Normal termination of Gaussian 16 at Wed Apr 30 05:04:37 2025.
