 Gaussian 16, Revision C.01,
 Gaussian 16:  AS64L-G16RevC.01  3-Jul-2019

 ----------------------------------------------------------------------
 # opt=(calcfc,tight) freq 6-311+g(d,p) scrf=(smd,solvent=thf) nosymm s
 cf=(qc,fermi,xqc) geom=connectivity int=ultrafine m062x
 ----------------------------------------------------------------------

 --------------------------
 3-br-ph-anion-opt-freq-thf
 --------------------------
 Symbolic Z-matrix:
 Charge = -1 Multiplicity = 1

 SCF Done:  E(RM062X) =  -2805.21255147     A.U. after   16 cycles
 SCF Done:  E(RM062X) =  -2805.22511332     A.U. after   14 cycles
 SCF Done:  E(RM062X) =  -2805.22546964     A.U. after   13 cycles
 SCF Done:  E(RM062X) =  -2805.22547190     A.U. after   11 cycles
 SCF Done:  E(RM062X) =  -2805.22547191     A.U. after    7 cycles
 Optimization completed.
    -- Stationary point found.
 Normal termination of Gaussian 16 at Fri May 30 04:51:14 2025.

 ----------------------------------------------------------------------
 #N Geom=AllCheck Guess=TCheck SCRF=Check GenChk RM062X/6-311+G(d,p) Fr
 eq
 ----------------------------------------------------------------------

 Structure from the checkpoint file:  "3-br-ph-anion-opt-freq-thf.chk"
 --------------------------
 3-br-ph-anion-opt-freq-thf
 --------------------------
 Charge = -1 Multiplicity = 1

                          Input orientation:
 ---------------------------------------------------------------------
 Center     Atomic      Atomic             Coordinates (Angstroms)
 Number     Number       Type             X           Y           Z
 ---------------------------------------------------------------------
      1          6           0        6.298676    6.972575    5.202349
      2          6           0        5.124191    6.190068    5.294546
      3          1           0        5.161510    5.235182    5.819993
      4          6           0        3.888510    6.551704    4.752027
      5          1           0        3.022760    5.902544    4.858349
      6          6           0        3.750674    7.756746    4.063748
      7          6           0        4.883424    8.550139    3.956267
      8          6           0        6.112959    8.184867    4.498370
      9          1           0        6.942164    8.876485    4.358631
     10          1           0        2.804925    8.060443    3.632448
     11         35           0        4.726916   10.231378    3.009606
 ---------------------------------------------------------------------

 SCF Done:  E(RM062X) =  -2805.22547191     A.U. after    1 cycles

 Alpha  occ. eigenvalues -- -485.30403 -63.29597 -57.12328 -57.12097 -57.12093
 Alpha  occ. eigenvalues --  -10.56385 -10.51521 -10.51130 -10.50114 -10.49432
 Alpha  occ. eigenvalues --  -10.45818  -8.98303  -6.81034  -6.80105  -6.80099
 Alpha  occ. eigenvalues --   -2.84191  -2.83868  -2.83858  -2.83036  -2.83036
 Alpha  occ. eigenvalues --   -0.93071  -0.85468  -0.79381  -0.76940  -0.64220
 Alpha  occ. eigenvalues --   -0.61612  -0.54602  -0.47475  -0.47000  -0.43098
 Alpha  occ. eigenvalues --   -0.41745  -0.41593  -0.34943  -0.33955  -0.32293
 Alpha  occ. eigenvalues --   -0.26665  -0.25558  -0.20173
 Alpha virt. eigenvalues --    0.02797   0.03585   0.04426   0.05168   0.05309
 Alpha virt. eigenvalues --    0.05795   0.07189   0.07374   0.08429   0.09513
 Alpha virt. eigenvalues --    0.09758   0.10117   0.11469   0.11755   0.13116

 Mulliken charges:
               1
     1  C   -0.907659
     2  C   -0.132978
     3  H    0.153289
     4  C   -0.190258
     5  H    0.170126
     6  C   -0.491894
     7  C    0.619146
     8  C   -0.316108
     9  H    0.162041
    10  H    0.183568
    11  Br  -0.249272
 Sum of Mulliken charges =  -1.00000

 Dipole moment (field-independent basis, Debye):
    X=            -30.1179    Y=            -36.2095    Z=            -23.4913  Tot=             52.6314
 Quadrupole moment (field-independent basis, Debye-Ang):
   XX=           -249.2957   YY=           -338.9923   ZZ=           -179.8405
   XY=           -220.1791   XZ=           -150.6187   YZ=           -172.8781

  Exact polarizability:     143.378      -3.906     152.047      19.468     -38.902     107.974
 Approx polarizability:     130.800      -0.073     140.785      14.363     -32.790     101.524

                      1                      2                      3
                      A                      A                      A
 Frequencies --    155.1048               251.3635               307.7839
 Red. masses --      4.5987                 5.6371                11.5064
 Frc consts  --      0.0652                 0.2098                 0.6422
 IR Inten    --      0.2136                 5.4674                 3.3482

                      4                      5                      6
                      A                      A                      A
 Frequencies --    391.3715               448.5864               603.1993
 Red. masses --      3.1693                 4.3662                 7.4912
 Frc consts  --      0.2860                 0.5177                 1.6059
 IR Inten    --     17.1691                 1.1426                11.0156

                      7                      8                      9
                      A                      A                      A
 Frequencies --    672.7343               706.7970               776.9269
 Red. masses --      7.8901                 3.3133                 1.3255
 Frc consts  --      2.1039                 0.9752                 0.4714
 IR Inten    --     49.6453                17.9376                69.9184

                     10                     11                     12
                      A                      A                      A
 Frequencies --    890.5702               933.0305               976.5469
 Red. masses --      1.3025                 1.3209                 8.1882
 Frc consts  --      0.6087                 0.6775                 4.6007
 IR Inten    --      0.1410                 1.6340               107.2470

                     13                     14                     15
                      A                      A                      A
 Frequencies --   1000.9361              1017.3517              1086.9990
 Red. masses --      1.3530                 5.1219                 2.0022
 Frc consts  --      0.7987                 3.1234                 1.3938
 IR Inten    --      0.1273                 6.3192                32.1149

                     16                     17                     18
                      A                      A                      A
 Frequencies --   1110.8571              1182.9522              1245.2467
 Red. masses --      1.5984                 1.2053                 6.6034
 Frc consts  --      1.1621                 0.9938                 6.0329
 IR Inten    --     10.0801                 1.7289                40.5000

                     19                     20                     21
                      A                      A                      A
 Frequencies --   1325.6569              1399.8256              1460.8299
 Red. masses --      1.2362                 2.4571                 1.9234
 Frc consts  --      1.2800                 2.8368                 2.4183
 IR Inten    --      6.4170                10.7156                36.2150

                     22                     23                     24
                      A                      A                      A
 Frequencies --   1575.9409              1602.4769              3116.1055
 Red. masses --      5.3099                 6.2099                 1.0865
 Frc consts  --      7.7699                 9.3954                 6.2159
 IR Inten    --     47.9712                 8.0209                61.4832

                     25                     26                     27
                      A                      A                      A
 Frequencies --   3137.6218              3170.9346              3222.4232
 Red. masses --      1.0888                 1.0914                 1.0945
 Frc consts  --      6.3154                 6.4657                 6.6965
 IR Inten    --     32.4512                50.9842                 3.9872

 - Thermochemistry -
 -------------------
 Temperature   298.150 Kelvin.  Pressure   1.00000 Atm.
 Atom     1 has atomic number  6 and mass  12.00000

 Molecular mass:   154.94964 amu.
 Principal axes and moments of inertia in atomic units:
                           1         2         3
     Eigenvalues --   309.633661802.854292112.48748
           X           -0.07610   0.96771  -0.24032
           Y            0.86919   0.18249   0.45958
           Z           -0.48859   0.17391   0.85500
 This molecule is an asymmetric top.
 Rotational symmetry number  1.
 Rotational temperatures (Kelvin)      0.27973     0.04804     0.04100
 Rotational constants (GHZ):           5.82863     1.00105     0.85432
 Zero-point vibrational energy     201990.5 (Joules/Mol)
                                   48.27689 (Kcal/Mol)
 Warning -- explicit consideration of   6 degrees of freedom as
           vibrations may cause significant error
 Vibrational temperatures:    223.16   361.66   442.83   563.10   645.42
          (Kelvin)            867.87   967.91  1016.92  1117.82  1281.33
                             1342.42  1405.03  1440.12  1463.74  1563.95
                             1598.28  1702.00  1791.63  1907.32  2014.04
                             2101.81  2267.43  2305.61  4483.38  4514.34
                             4562.27  4636.35

 Zero-point correction=                           0.076934 (Hartree/Particle)
 Thermal correction to Energy=                    0.082684
 Thermal correction to Enthalpy=                  0.083628
 Thermal correction to Gibbs Free Energy=         0.045990
 Sum of electronic and zero-point Energies=          -2805.148538
 Sum of electronic and thermal Energies=             -2805.142788
 Sum of electronic and thermal Enthalpies=           -2805.141844
 Sum of electronic and thermal Free Energies=        -2805.179482

                     E (Thermal)             CV                S
                      KCal/Mol        Cal/Mol-Kelvin    Cal/Mol-Kelvin
 Total                   51.885             21.045             79.216
 Electronic               0.000              0.000              0.000
 Translational            0.889              2.981             41.023
 Rotational               0.889              2.981             28.557
 Vibrational             50.107             15.083              9.635
 Vibration     1          0.620              1.897              2.609
 Vibration     2          0.663              1.760              1.721
 Vibration     3          0.698              1.659              1.374
 Vibration     4          0.759              1.489              0.995
 Vibration     5          0.808              1.364              0.800
 Vibration     6          0.962              1.025              0.444

 Optimization completed.
    -- Stationary point found.
 Normal termination of Gaussian 16 at Fri May 30 04:51:51 2025.
