 Gaussian 16, Revision C.01,
 Gaussian 16:  AS64L-G16RevC.01  3-Jul-2019

 ----------------------------------------------------------------------
 # opt=(calcfc,tight) freq 6-311+g(d,p) nosymm scf=(qc,fermi,xqc) geom=
 connectivity int=ultrafine m062x
 ----------------------------------------------------------------------

 -------------------
 3-cl-phboh2-optfreq
 -------------------
 Symbolic Z-matrix:
 Charge =  0 Multiplicity = 1

 SCF Done:  E(RM062X) =  -867.824551869     A.U. after   15 cycles
 SCF Done:  E(RM062X) =  -867.825732334     A.U. after   13 cycles
 SCF Done:  E(RM062X) =  -867.825733299     A.U. after   11 cycles
 SCF Done:  E(RM062X) =  -867.825733305     A.U. after    8 cycles
 SCF Done:  E(RM062X) =  -867.825733305     A.U. after    6 cycles
 Optimization completed.
    -- Stationary point found.
 Normal termination of Gaussian 16 at Tue Apr 22 20:48:28 2025.

 ----------------------------------------------------------------------
 #N Geom=AllCheck Guess=TCheck SCRF=Check GenChk RM062X/6-311+G(d,p) Fr
 eq
 ----------------------------------------------------------------------

 Structure from the checkpoint file:  "3-cl-phboh2-opt-freq.chk"
 -------------------
 3-cl-phboh2-optfreq
 -------------------
 Charge =  0 Multiplicity = 1

                          Input orientation:
 ---------------------------------------------------------------------
 Center     Atomic      Atomic             Coordinates (Angstroms)
 Number     Number       Type             X           Y           Z
 ---------------------------------------------------------------------
      1          8           0        8.684862    7.455081    5.532389
      2          1           0        9.499727    7.152123    5.943104
      3          6           0        6.240158    6.994906    5.171436
      4          5           0        7.640596    6.615898    5.771047
      5          8           0        7.874311    5.496698    6.520410
      6          1           0        7.102267    4.952257    6.681604
      7          6           0        5.118004    6.169316    5.287001
      8          1           0        5.183323    5.214205    5.800165
      9          6           0        3.892921    6.541978    4.745599
     10          1           0        3.031420    5.892282    4.841684
     11          6           0        3.766438    7.752593    4.074447
     12          6           0        4.880659    8.573941    3.955763
     13          6           0        6.106850    8.210304    4.491129
     14          1           0        6.962439    8.866236    4.384202
     15          1           0        2.820634    8.060003    3.646664
     16         17           0        4.728516   10.093611    3.111739
 ---------------------------------------------------------------------

 SCF Done:  E(RM062X) =  -867.825733305     A.U. after    1 cycles

 Alpha  occ. eigenvalues -- -102.67633 -19.64743 -19.63912 -10.61305 -10.56591
 Alpha  occ. eigenvalues --  -10.56420 -10.56279 -10.56068 -10.54609  -9.81903
 Alpha  occ. eigenvalues --   -7.54411  -7.53743  -7.53733  -7.09416  -1.17774
 Alpha  occ. eigenvalues --   -1.14089  -1.00389  -0.94360  -0.86388  -0.83683
 Alpha  occ. eigenvalues --   -0.71392  -0.69907  -0.66077  -0.63547  -0.60313
 Alpha  occ. eigenvalues --   -0.55159  -0.53879  -0.51652  -0.50469  -0.49192
 Alpha  occ. eigenvalues --   -0.47048  -0.46539  -0.46413  -0.42541  -0.41379
 Alpha  occ. eigenvalues --   -0.40502  -0.40499  -0.37655  -0.32656  -0.30816
 Alpha virt. eigenvalues --   -0.01765  -0.00872   0.00320   0.01168   0.01857
 Alpha virt. eigenvalues --    0.02909   0.03050   0.03965   0.04939   0.05871
 Alpha virt. eigenvalues --    0.07192   0.07573   0.08133   0.08646   0.09993

 Mulliken charges:
               1
     1  O   -0.366300
     2  H    0.306827
     3  C   -0.772572
     4  B    0.475872
     5  O   -0.356325
     6  H    0.253919
     7  C   -0.085870
     8  H    0.125260
     9  C   -0.250084
    10  H    0.163751
    11  C   -0.515463
    12  C    0.874187
    13  C   -0.546551
    14  H    0.204078
    15  H    0.182756
    16  Cl   0.306517
 Sum of Mulliken charges =   0.00000

 Dipole moment (field-independent basis, Debye):
    X=             -0.6824    Y=             -2.4977    Z=              1.2866  Tot=              2.8913
 Quadrupole moment (field-independent basis, Debye-Ang):
   XX=            -66.3567   YY=           -101.4028   ZZ=            -54.4647
   XY=            -16.4188   XZ=              5.3928   YZ=             -3.8679

  Exact polarizability:     109.228      -1.491     107.995      15.615     -28.321      75.725
 Approx polarizability:     133.194       4.142     133.857      14.495     -31.309      94.186

                      1                      2                      3
                      A                      A                      A
 Frequencies --     21.9932               129.9968               133.5125
 Red. masses --      5.7822                 5.0377                 8.0334
 Frc consts  --      0.0016                 0.0502                 0.0844
 IR Inten    --      2.1567                 0.2552                 0.8239

                      4                      5                      6
                      A                      A                      A
 Frequencies --    189.6369               279.8808               335.2621
 Red. masses --      4.5714                 6.2502                 6.4347
 Frc consts  --      0.0969                 0.2885                 0.4261
 IR Inten    --      0.6000                 4.3777                 8.2196

                      7                      8                      9
                      A                      A                      A
 Frequencies --    403.4507               416.3423               458.9232
 Red. masses --      7.0511                 3.0095                 1.8813
 Frc consts  --      0.6762                 0.3074                 0.2334
 IR Inten    --      4.5781                 8.1892                83.5822

                     10                     11                     12
                      A                      A                      A
 Frequencies --    464.4365               487.0797               534.1519
 Red. masses --      2.8152                 2.0329                 3.8042
 Frc consts  --      0.3578                 0.2842                 0.6395
 IR Inten    --     37.9634                33.4558                35.9267

                     13                     14                     15
                      A                      A                      A
 Frequencies --    571.9491               680.7756               684.2762
 Red. masses --      1.4158                 4.9026                 6.7556
 Frc consts  --      0.2729                 1.3387                 1.8637
 IR Inten    --     42.4781                29.6138                 7.1153

                     16                     17                     18
                      A                      A                      A
 Frequencies --    719.5910               810.3275               813.6430
 Red. masses --      2.1513                 1.6749                 6.2194
 Frc consts  --      0.6563                 0.6480                 2.4259
 IR Inten    --     90.9981                21.0219                44.3785

                     19                     20                     21
                      A                      A                      A
 Frequencies --    932.3838               945.7048               988.0678
 Red. masses --      1.3811                 1.4134                 1.4238
 Frc consts  --      0.7074                 0.7448                 0.8190
 IR Inten    --      0.0453                 6.1669               158.3988

                     22                     23                     24
                      A                      A                      A
 Frequencies --   1006.3557              1016.0652              1031.9841
 Red. masses --      1.3376                 5.0941                 1.4869
 Frc consts  --      0.7981                 3.0986                 0.9330
 IR Inten    --      0.2178                 3.8477               133.1495

                     25                     26                     27
                      A                      A                      A
 Frequencies --   1114.2511              1124.0281              1159.2687
 Red. masses --      2.1027                 1.7386                 2.3046
 Frc consts  --      1.5382                 1.2942                 1.8248
 IR Inten    --      1.8972                36.8494                 2.4442

                     28                     29                     30
                      A                      A                      A
 Frequencies --   1198.0266              1289.3304              1333.7599
 Red. masses --      1.1821                 2.6118                 1.8141
 Frc consts  --      0.9997                 2.5581                 1.9014
 IR Inten    --      0.7773                 4.7341                25.8422

                     31                     32                     33
                      A                      A                      A
 Frequencies --   1381.4465              1418.5069              1463.8906
 Red. masses --      3.7960                 5.0256                 3.9349
 Frc consts  --      4.2682                 5.9580                 4.9682
 IR Inten    --    502.5476               199.4547               220.9141

                     34                     35                     36
                      A                      A                      A
 Frequencies --   1524.1649              1638.6779              1668.5493
 Red. masses --      2.6554                 6.0218                 6.4130
 Frc consts  --      3.6345                 9.5272                10.5193
 IR Inten    --     18.5381                17.4156                 9.5378

                     37                     38                     39
                      A                      A                      A
 Frequencies --   3176.3091              3217.0477              3225.8143
 Red. masses --      1.0889                 1.0908                 1.0924
 Frc consts  --      6.4725                 6.6513                 6.6977
 IR Inten    --     15.9229                 5.5746                 1.6995

                     40                     41                     42
                      A                      A                      A
 Frequencies --   3234.1663              3909.4528              3949.5311
 Red. masses --      1.0963                 1.0653                 1.0661
 Frc consts  --      6.7559                 9.5933                 9.7977
 IR Inten    --      1.7946               116.6099                58.2172

 - Thermochemistry -
 -------------------
 Temperature   298.150 Kelvin.  Pressure   1.00000 Atm.
 Atom     1 has atomic number  8 and mass  15.99491

 Molecular mass:   156.01494 amu.
 Principal axes and moments of inertia in atomic units:
                           1         2         3
     Eigenvalues --   845.812062691.647293536.06488
           X            0.62536   0.74380  -0.23600
           Y           -0.60145   0.65212   0.46152
           Z            0.49718  -0.14668   0.85516
 This molecule is an asymmetric top.
 Rotational symmetry number  1.
 Warning -- assumption of classical behavior for rotation
           may cause significant error
 Rotational temperatures (Kelvin)      0.10240     0.03218     0.02449
 Rotational constants (GHZ):           2.13374     0.67050     0.51038
 Zero-point vibrational energy     305538.3 (Joules/Mol)
                                   73.02540 (Kcal/Mol)
 Warning -- explicit consideration of  13 degrees of freedom as
           vibrations may cause significant error
 Vibrational temperatures:     31.64   187.04   192.09   272.85   402.69
          (Kelvin)            482.37   580.48   599.02   660.29   668.22
                              700.80   768.53   822.91   979.48   984.52
                             1035.33  1165.88  1170.65  1341.49  1360.66
                             1421.61  1447.92  1461.89  1484.79  1603.16
                             1617.23  1667.93  1723.69  1855.06  1918.98
                             1987.59  2040.92  2106.21  2192.93  2357.69
                             2400.67  4570.00  4628.61  4641.23  4653.24
                             5624.83  5682.49

 Zero-point correction=                           0.116373 (Hartree/Particle)
 Thermal correction to Energy=                    0.125435
 Thermal correction to Enthalpy=                  0.126379
 Thermal correction to Gibbs Free Energy=         0.080668
 Sum of electronic and zero-point Energies=           -867.709360
 Sum of electronic and thermal Energies=              -867.700298
 Sum of electronic and thermal Enthalpies=            -867.699354
 Sum of electronic and thermal Free Energies=         -867.745065

                     E (Thermal)             CV                S
                      KCal/Mol        Cal/Mol-Kelvin    Cal/Mol-Kelvin
 Total                   78.712             33.921             96.207
 Electronic               0.000              0.000              0.000
 Translational            0.889              2.981             41.044
 Rotational               0.889              2.981             30.466
 Vibrational             76.934             27.960             24.697
 Vibration     1          0.593              1.985              6.446
 Vibration     2          0.612              1.923              2.946
 Vibration     3          0.613              1.920              2.895
 Vibration     4          0.633              1.854              2.231
 Vibration     5          0.680              1.711              1.534
 Vibration     6          0.716              1.605              1.235
 Vibration     7          0.769              1.463              0.950
 Vibration     8          0.780              1.435              0.904
 Vibration     9          0.817              1.341              0.769
 Vibration    10          0.822              1.329              0.753
 Vibration    11          0.843              1.279              0.691
 Vibration    12          0.889              1.174              0.578
 Vibration    13          0.928              1.092              0.501

 Optimization completed.
    -- Stationary point found.
 Normal termination of Gaussian 16 at Tue Apr 22 20:49:45 2025.
