 Gaussian 16, Revision C.01,
 Gaussian 16:  AS64L-G16RevC.01  3-Jul-2019

 ----------------------------------------------------------------------
 # opt=(calcfc,tight) freq 6-311+g(d,p) nosymm scf=(qc,fermi,xqc) geom=
 connectivity int=ultrafine m062x
 ----------------------------------------------------------------------

 ---------------------------
 3-isopropyl-phboh2-opt-freq
 ---------------------------
 Symbolic Z-matrix:
 Charge =  0 Multiplicity = 1

 SCF Done:  E(RM062X) =  -526.130680258     A.U. after   14 cycles
 SCF Done:  E(RM062X) =  -526.138365320     A.U. after   15 cycles
 SCF Done:  E(RM062X) =  -526.138397018     A.U. after   15 cycles
 SCF Done:  E(RM062X) =  -526.139320442     A.U. after   14 cycles
 SCF Done:  E(RM062X) =  -526.139416115     A.U. after   12 cycles
 SCF Done:  E(RM062X) =  -526.139466207     A.U. after   12 cycles
 SCF Done:  E(RM062X) =  -526.139477879     A.U. after   11 cycles
 SCF Done:  E(RM062X) =  -526.139513358     A.U. after   13 cycles
 SCF Done:  E(RM062X) =  -526.139553959     A.U. after   13 cycles
 SCF Done:  E(RM062X) =  -526.139560382     A.U. after   12 cycles
 SCF Done:  E(RM062X) =  -526.139877392     A.U. after   12 cycles
 SCF Done:  E(RM062X) =  -526.139887388     A.U. after   11 cycles
 SCF Done:  E(RM062X) =  -526.139888157     A.U. after   10 cycles
 SCF Done:  E(RM062X) =  -526.139887990     A.U. after   10 cycles
 SCF Done:  E(RM062X) =  -526.139888124     A.U. after    9 cycles
 SCF Done:  E(RM062X) =  -526.139888157     A.U. after   11 cycles
 SCF Done:  E(RM062X) =  -526.139888258     A.U. after   10 cycles
 SCF Done:  E(RM062X) =  -526.139888261     A.U. after    8 cycles
 SCF Done:  E(RM062X) =  -526.139888261     A.U. after    7 cycles
 Optimization completed.
    -- Stationary point found.
 Normal termination of Gaussian 16 at Wed Apr 30 05:21:27 2025.

 ----------------------------------------------------------------------
 #N Geom=AllCheck Guess=TCheck SCRF=Check GenChk RM062X/6-311+G(d,p) Fr
 eq
 ----------------------------------------------------------------------

 Structure from the checkpoint file:  "3-isopropyl-phboh2-opt-freq.chk"
 ---------------------------
 3-isopropyl-phboh2-opt-freq
 ---------------------------
 Charge =  0 Multiplicity = 1

                          Input orientation:
 ---------------------------------------------------------------------
 Center     Atomic      Atomic             Coordinates (Angstroms)
 Number     Number       Type             X           Y           Z
 ---------------------------------------------------------------------
      1          8           0        8.808949    6.741646    4.837633
      2          1           0        9.598422    6.247107    5.075362
      3          6           0        6.314102    6.922984    5.142861
      4          5           0        7.692925    6.241940    5.440241
      5          8           0        7.850879    5.164681    6.270944
      6          1           0        7.032932    4.829156    6.641187
      7          6           0        5.136762    6.553702    5.798158
      8          1           0        5.141400    5.775664    6.557115
      9          6           0        3.930458    7.180150    5.502167
     10          1           0        3.023491    6.886806    6.017897
     11          6           0        3.888982    8.186106    4.545003
     12          6           0        5.047700    8.583724    3.871301
     13          6           0        6.243802    7.943390    4.185769
     14          1           0        7.155851    8.239006    3.675841
     15          1           0        2.942460    8.667983    4.321015
     16          6           0        5.002178    9.682952    2.828433
     17          1           0        6.021547    9.809770    2.450302
     18          6           0        4.554321   11.014745    3.440742
     19          1           0        5.200275   11.302015    4.272667
     20          1           0        4.580019   11.809425    2.691115
     21          1           0        3.530298   10.943736    3.817804
     22          6           0        4.103175    9.296143    1.648835
     23          1           0        4.123984   10.072469    0.880075
     24          1           0        4.426559    8.354992    1.199873
     25          1           0        3.066179    9.175672    1.974391
 ---------------------------------------------------------------------

 SCF Done:  E(RM062X) =  -526.139888261     A.U. after    1 cycles

 Alpha  occ. eigenvalues --  -19.63779 -19.63012 -10.54899 -10.54819 -10.54617
 Alpha  occ. eigenvalues --  -10.54609 -10.54528 -10.54010 -10.52862 -10.52580
 Alpha  occ. eigenvalues --  -10.52567  -7.08290  -1.16822  -1.13105  -0.96749
 Alpha  occ. eigenvalues --   -0.90509  -0.84383  -0.82819  -0.77670  -0.71119
 Alpha  occ. eigenvalues --   -0.69027  -0.66410  -0.64308  -0.61548  -0.58603
 Alpha  occ. eigenvalues --   -0.54519  -0.53000  -0.50846  -0.49500  -0.49324
 Alpha  occ. eigenvalues --   -0.48544  -0.47654  -0.45630  -0.45257  -0.44925
 Alpha  occ. eigenvalues --   -0.43639  -0.42930  -0.40450  -0.40180  -0.40074
 Alpha  occ. eigenvalues --   -0.38428  -0.37036  -0.30909  -0.30023
 Alpha virt. eigenvalues --   -0.00415  -0.00288   0.01384   0.01511   0.01994
 Alpha virt. eigenvalues --    0.02861   0.02998   0.03425   0.04343   0.04456
 Alpha virt. eigenvalues --    0.05854   0.06369   0.06912   0.07132   0.08006

 Mulliken charges:
               1
     1  O   -0.348268
     2  H    0.301244
     3  C   -0.590377
     4  B    0.467480
     5  O   -0.325879
     6  H    0.248735
     7  C    0.003240
     8  H    0.120989
     9  C   -0.237649
    10  H    0.154577
    11  C    0.083058
    12  C    0.405435
    13  C   -0.690329
    14  H    0.175247
    15  H    0.154108
    16  C    0.124229
    17  H    0.160246
    18  C   -0.605873
    19  H    0.172575
    20  H    0.163983
    21  H    0.166251
    22  C   -0.605232
    23  H    0.164115
    24  H    0.171909
    25  H    0.166186
 Sum of Mulliken charges =   0.00000

 Dipole moment (field-independent basis, Debye):
    X=             -1.0606    Y=             -0.2915    Z=              0.2735  Tot=              1.1334
 Quadrupole moment (field-independent basis, Debye-Ang):
   XX=            -80.8644   YY=            -74.4925   ZZ=            -68.6515
   XY=            -10.4369   XZ=             -4.8891   YZ=             -4.6835

  Exact polarizability:     131.697     -14.982     121.818       2.897     -30.580     113.050
 Approx polarizability:     167.010      -9.532     141.974      -5.660     -30.556     136.775

                      1                      2                      3
                      A                      A                      A
 Frequencies --     24.5307                36.1046               122.9666
 Red. masses --      5.3655                 2.8828                 3.6524
 Frc consts  --      0.0019                 0.0022                 0.0325
 IR Inten    --      2.8407                 0.0264                 0.8531

                      4                      5                      6
                      A                      A                      A
 Frequencies --    125.7330               141.6273               233.5160
 Red. masses --      3.9206                 4.1750                 1.0625
 Frc consts  --      0.0365                 0.0493                 0.0341
 IR Inten    --      1.3598                 0.2820                 0.0135

                      7                      8                      9
                      A                      A                      A
 Frequencies --    234.1506               271.5073               277.5036
 Red. masses --      2.1924                 1.6016                 2.1487
 Frc consts  --      0.0708                 0.0696                 0.0975
 IR Inten    --      0.5782                 0.4634                 1.1388

                     10                     11                     12
                      A                      A                      A
 Frequencies --    317.0085               343.1266               405.7946
 Red. masses --      3.0666                 4.4587                 3.3073
 Frc consts  --      0.1816                 0.3093                 0.3209
 IR Inten    --      0.5493                 5.7226                 4.3970

                     13                     14                     15
                      A                      A                      A
 Frequencies --    420.0213               472.0526               490.3013
 Red. masses --      3.0890                 1.1478                 3.6518
 Frc consts  --      0.3211                 0.1507                 0.5172
 IR Inten    --      6.2528               148.0171                 4.5729

                     16                     17                     18
                      A                      A                      A
 Frequencies --    525.7072               533.9964               580.1099
 Red. masses --      1.8843                 3.6784                 2.9664
 Frc consts  --      0.3068                 0.6180                 0.5882
 IR Inten    --      3.4193                37.9027                 1.7659

                     19                     20                     21
                      A                      A                      A
 Frequencies --    589.5548               702.0250               707.0132
 Red. masses --      1.8432                 5.8348                 5.0646
 Frc consts  --      0.3775                 1.6943                 1.4916
 IR Inten    --     55.5450                33.1636                 2.1970

                     22                     23                     24
                      A                      A                      A
 Frequencies --    724.5140               822.7379               824.0282
 Red. masses --      1.7967                 1.7773                 3.9630
 Frc consts  --      0.5557                 0.7088                 1.5855
 IR Inten    --     68.9773                12.5938                 4.1416

                     25                     26                     27
                      A                      A                      A
 Frequencies --    931.4650               932.2976               938.9912
 Red. masses --      2.0183                 1.2852                 1.3749
 Frc consts  --      1.0317                 0.6582                 0.7142
 IR Inten    --      1.9123                 0.5797                 0.1421

                     28                     29                     30
                      A                      A                      A
 Frequencies --    959.4277               973.4827               994.9201
 Red. masses --      1.3860                 1.5006                 1.4287
 Frc consts  --      0.7517                 0.8379                 0.8332
 IR Inten    --      4.4519                 0.0156               134.2066

                     31                     32                     33
                      A                      A                      A
 Frequencies --   1011.7042              1017.2510              1036.6692
 Red. masses --      1.3444                 5.2282                 1.4623
 Frc consts  --      0.8107                 3.1876                 0.9259
 IR Inten    --      0.1671                 8.1840               141.4142

                     34                     35                     36
                      A                      A                      A
 Frequencies --   1073.3565              1121.9522              1141.9994
 Red. masses --      1.6101                 1.8185                 2.3440
 Frc consts  --      1.0929                 1.3487                 1.8011
 IR Inten    --     11.8912                 3.2837                 0.7161

                     37                     38                     39
                      A                      A                      A
 Frequencies --   1154.3278              1179.9746              1203.4543
 Red. masses --      1.6022                 1.9371                 1.1730
 Frc consts  --      1.2579                 1.5891                 1.0010
 IR Inten    --     26.4078                 0.3960                 0.6104

                     40                     41                     42
                      A                      A                      A
 Frequencies --   1247.6738              1300.8733              1345.9970
 Red. masses --      1.8840                 3.3292                 1.8639
 Frc consts  --      1.7279                 3.3194                 1.9896
 IR Inten    --     26.7948                22.8331                 5.4734

                     43                     44                     45
                      A                      A                      A
 Frequencies --   1349.2104              1362.2334              1386.9749
 Red. masses --      1.3461                 1.5750                 3.6219
 Frc consts  --      1.4437                 1.7220                 4.1051
 IR Inten    --      0.7289                11.5114               463.5168

                     46                     47                     48
                      A                      A                      A
 Frequencies --   1399.7084              1419.6609              1420.8875
 Red. masses --      1.2640                 5.4507                 1.2528
 Frc consts  --      1.4591                 6.4725                 1.4902
 IR Inten    --      9.5133               265.0868                29.9749

                     49                     50                     51
                      A                      A                      A
 Frequencies --   1475.4012              1489.6386              1494.2135
 Red. masses --      2.9806                 1.0425                 1.0476
 Frc consts  --      3.8228                 1.3630                 1.3780
 IR Inten    --     87.8861                 0.0213                 3.4953

                     52                     53                     54
                      A                      A                      A
 Frequencies --   1507.2056              1513.4904              1536.1608
 Red. masses --      1.0533                 1.1138                 2.4783
 Frc consts  --      1.4097                 1.5032                 3.4457
 IR Inten    --     12.6029                19.1644                14.9573

                     55                     56                     57
                      A                      A                      A
 Frequencies --   1654.1673              1675.1376              3054.9319
 Red. masses --      5.5793                 6.1590                 1.0349
 Frc consts  --      8.9948                10.1827                 5.6903
 IR Inten    --     13.3443                 7.5782                19.7295

                     58                     59                     60
                      A                      A                      A
 Frequencies --   3056.8293              3065.8805              3124.1601
 Red. masses --      1.0385                 1.0815                 1.1024
 Frc consts  --      5.7176                 5.9895                 6.3394
 IR Inten    --     20.6820                11.5874                 1.3604

                     61                     62                     63
                      A                      A                      A
 Frequencies --   3129.8852              3137.7373              3139.2127
 Red. masses --      1.1012                 1.1030                 1.1027
 Frc consts  --      6.3561                 6.3979                 6.4026
 IR Inten    --     55.8383                13.7483                25.5454

                     64                     65                     66
                      A                      A                      A
 Frequencies --   3167.8584              3189.7156              3190.7128
 Red. masses --      1.0882                 1.0903                 1.0891
 Frc consts  --      6.4340                 6.5357                 6.5325
 IR Inten    --     19.1832                 7.6534                 5.3275

                     67                     68                     69
                      A                      A                      A
 Frequencies --   3213.0441              3908.8012              3946.7855
 Red. masses --      1.0962                 1.0653                 1.0659
 Frc consts  --      6.6677                 9.5894                 9.7830
 IR Inten    --     12.8875               108.8442                54.8139

 - Thermochemistry -
 -------------------
 Temperature   298.150 Kelvin.  Pressure   1.00000 Atm.
 Atom     1 has atomic number  8 and mass  15.99491

 Molecular mass:   164.10086 amu.
 Principal axes and moments of inertia in atomic units:
                           1         2         3
     Eigenvalues --  1017.671553561.645214188.62113
           X           -0.58508   0.79405   0.16482
           Y            0.65649   0.34442   0.67111
           Z           -0.47612  -0.50086   0.72280
 This molecule is an asymmetric top.
 Rotational symmetry number  1.
 Warning -- assumption of classical behavior for rotation
           may cause significant error
 Rotational temperatures (Kelvin)      0.08511     0.02432     0.02068
 Rotational constants (GHZ):           1.77340     0.50672     0.43087
 Zero-point vibrational energy     553279.4 (Joules/Mol)
                                  132.23695 (Kcal/Mol)
 Warning -- explicit consideration of  19 degrees of freedom as
           vibrations may cause significant error
 Vibrational temperatures:     35.29    51.95   176.92   180.90   203.77
          (Kelvin)            335.98   336.89   390.64   399.27   456.10
                              493.68   583.85   604.32   679.18   705.43
                              756.38   768.30   834.65   848.24  1010.06
                             1017.23  1042.41  1183.74  1185.59  1340.17
                             1341.37  1351.00  1380.40  1400.62  1431.47
                             1455.62  1463.60  1491.54  1544.32  1614.24
                             1643.08  1660.82  1697.72  1731.50  1795.12
                             1871.67  1936.59  1941.21  1959.95  1995.55
                             2013.87  2042.58  2044.34  2122.77  2143.26
                             2149.84  2168.53  2177.58  2210.19  2379.98
                             2410.15  4395.37  4398.10  4411.12  4494.97
                             4503.21  4514.50  4516.63  4557.84  4589.29
                             4590.72  4622.85  5623.89  5678.54

 Zero-point correction=                           0.210733 (Hartree/Particle)
 Thermal correction to Energy=                    0.222939
 Thermal correction to Enthalpy=                  0.223883
 Thermal correction to Gibbs Free Energy=         0.171455
 Sum of electronic and zero-point Energies=           -525.929155
 Sum of electronic and thermal Energies=              -525.916949
 Sum of electronic and thermal Enthalpies=            -525.916005
 Sum of electronic and thermal Free Energies=         -525.968433

                     E (Thermal)             CV                S
                      KCal/Mol        Cal/Mol-Kelvin    Cal/Mol-Kelvin
 Total                  139.896             46.312            110.344
 Electronic               0.000              0.000              0.000
 Translational            0.889              2.981             41.194
 Rotational               0.889              2.981             31.096
 Vibrational            138.119             40.350             38.054
 Vibration     1          0.593              1.985              6.229
 Vibration     2          0.594              1.982              5.462
 Vibration     3          0.610              1.930              3.053
 Vibration     4          0.611              1.927              3.010
 Vibration     5          0.615              1.912              2.782
 Vibration     6          0.654              1.790              1.852
 Vibration     7          0.654              1.789              1.847
 Vibration     8          0.675              1.726              1.587
 Vibration     9          0.678              1.715              1.549
 Vibration    10          0.704              1.641              1.325
 Vibration    11          0.722              1.589              1.198
 Vibration    12          0.771              1.458              0.942
 Vibration    13          0.783              1.427              0.892
 Vibration    14          0.829              1.312              0.732
 Vibration    15          0.846              1.272              0.683
 Vibration    16          0.881              1.193              0.597
 Vibration    17          0.889              1.175              0.578
 Vibration    18          0.937              1.074              0.485
 Vibration    19          0.947              1.054              0.468

 Optimization completed.
    -- Stationary point found.
 Normal termination of Gaussian 16 at Wed Apr 30 05:24:55 2025.
