 Gaussian 16, Revision C.01,
 Gaussian 16:  AS64L-G16RevC.01  3-Jul-2019

 ----------------------------------------------------------------------
 # opt=(calcfc,tight) freq 6-311+g(d,p) scrf=(smd,solvent=thf) nosymm s
 cf=(qc,fermi,xqc) geom=connectivity int=ultrafine m062x
 ----------------------------------------------------------------------

 ---------------------------------
 3-isopropyl-ph-anion-opt-freq-thf
 ---------------------------------
 Symbolic Z-matrix:
 Charge = -1 Multiplicity = 1

 SCF Done:  E(RM062X) =  -349.544038254     A.U. after   16 cycles
 SCF Done:  E(RM062X) =  -349.557587641     A.U. after   14 cycles
 SCF Done:  E(RM062X) =  -349.558036891     A.U. after   13 cycles
 SCF Done:  E(RM062X) =  -349.558039284     A.U. after   11 cycles
 SCF Done:  E(RM062X) =  -349.558046211     A.U. after   10 cycles
 SCF Done:  E(RM062X) =  -349.558046493     A.U. after    9 cycles
 SCF Done:  E(RM062X) =  -349.558046526     A.U. after    9 cycles
 SCF Done:  E(RM062X) =  -349.558046526     A.U. after    5 cycles
 Optimization completed.
    -- Stationary point found.
 Normal termination of Gaussian 16 at Fri May 30 01:16:05 2025.

 ----------------------------------------------------------------------
 #N Geom=AllCheck Guess=TCheck SCRF=Check GenChk RM062X/6-311+G(d,p) Fr
 eq
 ----------------------------------------------------------------------

 Structure from the checkpoint file:  "3-isopropyl-ph-anion-opt-freq-thf.chk"
 ---------------------------------
 3-isopropyl-ph-anion-opt-freq-thf
 ---------------------------------
 Charge = -1 Multiplicity = 1

                          Input orientation:
 ---------------------------------------------------------------------
 Center     Atomic      Atomic             Coordinates (Angstroms)
 Number     Number       Type             X           Y           Z
 ---------------------------------------------------------------------
      1          6           0        6.368014    6.856316    5.120730
      2          6           0        5.154007    6.548297    5.776264
      3          1           0        5.134004    5.759414    6.530509
      4          6           0        3.940279    7.197355    5.521003
      5          1           0        3.040029    6.909476    6.059945
      6          6           0        3.875844    8.217842    4.575984
      7          6           0        5.035717    8.583532    3.884951
      8          6           0        6.226218    7.899153    4.174258
      9          1           0        7.102950    8.223103    3.606574
     10          1           0        2.932927    8.720877    4.378047
     11          6           0        5.000462    9.686942    2.841597
     12          1           0        6.026733    9.822688    2.483025
     13          6           0        4.527244   11.019175    3.432627
     14          1           0        5.147322   11.315885    4.282402
     15          1           0        4.571320   11.813866    2.681694
     16          1           0        3.492382   10.945460    3.780228
     17          6           0        4.129063    9.297533    1.642217
     18          1           0        4.155978   10.074850    0.872369
     19          1           0        4.471227    8.360308    1.195829
     20          1           0        3.087024    9.163800    1.948806
 ---------------------------------------------------------------------

 SCF Done:  E(RM062X) =  -349.558046526     A.U. after    1 cycles

 Alpha  occ. eigenvalues --  -10.51655 -10.50443 -10.50144 -10.50139 -10.49955
 Alpha  occ. eigenvalues --  -10.49732 -10.48403 -10.48381 -10.44642  -0.91551
 Alpha  occ. eigenvalues --   -0.86399  -0.78306  -0.77060  -0.75213  -0.66207
 Alpha  occ. eigenvalues --   -0.62927  -0.58506  -0.53708  -0.50008  -0.48163
 Alpha  occ. eigenvalues --   -0.45559  -0.44936  -0.44417  -0.42769  -0.40144
 Alpha  occ. eigenvalues --   -0.38963  -0.38438  -0.36855  -0.36145  -0.33089
 Alpha  occ. eigenvalues --   -0.25723  -0.24671  -0.19282
 Alpha virt. eigenvalues --    0.03314   0.04449   0.05309   0.05420   0.05940
 Alpha virt. eigenvalues --    0.06406   0.06677   0.07418   0.08060   0.08804
 Alpha virt. eigenvalues --    0.09204   0.09388   0.10106   0.10617   0.12428

 Mulliken charges:
               1
     1  C   -1.134974
     2  C    0.014432
     3  H    0.143267
     4  C   -0.296698
     5  H    0.158565
     6  C   -0.101291
     7  C    0.202262
     8  C   -0.283664
     9  H    0.137404
    10  H    0.161250
    11  C    0.067942
    12  H    0.166605
    13  C   -0.626129
    14  H    0.177347
    15  H    0.164931
    16  H    0.170887
    17  C   -0.637088
    18  H    0.164168
    19  H    0.176365
    20  H    0.174418
 Sum of Mulliken charges =  -1.00000

 Dipole moment (field-independent basis, Debye):
    X=            -30.8305    Y=            -32.6174    Z=            -24.8314  Tot=             51.2934
 Quadrupole moment (field-independent basis, Debye-Ang):
   XX=           -261.7228   YY=           -284.3214   ZZ=           -190.1698
   XY=           -207.2613   XZ=           -161.5463   YZ=           -170.9023

  Exact polarizability:     175.177     -17.316     158.502      -0.959     -32.918     150.288
 Approx polarizability:     155.237      -9.574     136.504      -5.294     -24.974     132.609

                      1                      2                      3
                      A                      A                      A
 Frequencies --     63.4879               130.8418               224.6291
 Red. masses --      3.2465                 2.9214                 2.0485
 Frc consts  --      0.0077                 0.0295                 0.0609
 IR Inten    --     11.1164                 0.1162                 2.2830

                      4                      5                      6
                      A                      A                      A
 Frequencies --    241.5889               278.0405               308.9751
 Red. masses --      1.1461                 1.1466                 2.8273
 Frc consts  --      0.0394                 0.0522                 0.1590
 IR Inten    --      0.3218                 0.7326                 3.4491

                      7                      8                      9
                      A                      A                      A
 Frequencies --    314.6039               407.1974               468.2427
 Red. masses --      2.9216                 3.3857                 2.9183
 Frc consts  --      0.1704                 0.3308                 0.3770
 IR Inten    --      2.3202                20.3303                 3.1690

                     10                     11                     12
                      A                      A                      A
 Frequencies --    549.2324               571.1857               624.4270
 Red. masses --      3.5750                 3.0059                 7.2264
 Frc consts  --      0.6354                 0.5778                 1.6601
 IR Inten    --      0.8468                 0.2811                 1.5847

                     13                     14                     15
                      A                      A                      A
 Frequencies --    743.3930               759.4694               803.4829
 Red. masses --      1.7785                 4.0292                 1.8862
 Frc consts  --      0.5791                 1.3693                 0.7174
 IR Inten    --     55.4435                 0.5637                30.3797

                     16                     17                     18
                      A                      A                      A
 Frequencies --    908.2010               914.4254               929.0902
 Red. masses --      1.3049                 2.4775                 1.1508
 Frc consts  --      0.6341                 1.2205                 0.5853
 IR Inten    --      0.1544                 1.3942                 1.1198

                     19                     20                     21
                      A                      A                      A
 Frequencies --    948.5441               969.0249              1001.4894
 Red. masses --      1.3980                 1.4594                 1.3843
 Frc consts  --      0.7411                 0.8074                 0.8180
 IR Inten    --      3.7443                 0.0815                 0.0446

                     22                     23                     24
                      A                      A                      A
 Frequencies --   1006.0438              1037.7096              1073.2985
 Red. masses --      5.9598                 2.6759                 1.5472
 Frc consts  --      3.5540                 1.6978                 1.0501
 IR Inten    --      0.0994                10.4149                21.9645

                     25                     26                     27
                      A                      A                      A
 Frequencies --   1113.9794              1138.4194              1166.6056
 Red. masses --      1.6660                 2.2940                 1.6522
 Frc consts  --      1.2181                 1.7517                 1.3248
 IR Inten    --     11.4696                 1.9189                 0.0322

                     28                     29                     30
                      A                      A                      A
 Frequencies --   1191.6434              1232.2477              1256.6452
 Red. masses --      1.3616                 1.8311                 5.1559
 Frc consts  --      1.1392                 1.6382                 4.7971
 IR Inten    --      1.4040                 7.6340                13.9787

                     31                     32                     33
                      A                      A                      A
 Frequencies --   1330.9309              1344.1816              1356.2900
 Red. masses --      1.6070                 1.3433                 1.4372
 Frc consts  --      1.6772                 1.4300                 1.5576
 IR Inten    --     25.0933                 1.4938                 2.9534

                     34                     35                     36
                      A                      A                      A
 Frequencies --   1390.1014              1405.7407              1423.5782
 Red. masses --      1.2835                 1.2552                 2.0075
 Frc consts  --      1.4613                 1.4614                 2.3970
 IR Inten    --     13.5277                 3.7934                 4.0448

                     37                     38                     39
                      A                      A                      A
 Frequencies --   1478.8410              1482.2700              1487.6078
 Red. masses --      1.0441                 1.0517                 1.7571
 Frc consts  --      1.3454                 1.3614                 2.2910
 IR Inten    --      0.0521                 5.3177                 3.2749

                     40                     41                     42
                      A                      A                      A
 Frequencies --   1491.6596              1498.7776              1595.0318
 Red. masses --      1.0518                 1.1798                 5.5354
 Frc consts  --      1.3789                 1.5615                 8.2973
 IR Inten    --     12.5649                14.4835                 8.6945

                     43                     44                     45
                      A                      A                      A
 Frequencies --   1621.3563              3043.2888              3046.7938
 Red. masses --      5.2832                 1.0351                 1.0362
 Frc consts  --      8.1828                 5.6483                 5.6674
 IR Inten    --      8.2035                39.4626                46.4846

                     46                     47                     48
                      A                      A                      A
 Frequencies --   3054.0010              3080.9011              3097.9704
 Red. masses --      1.0834                 1.0861                 1.0860
 Frc consts  --      5.9538                 6.0740                 6.1408
 IR Inten    --     24.1575                96.5958                69.7706

                     49                     50                     51
                      A                      A                      A
 Frequencies --   3112.0866              3116.3720              3122.9837
 Red. masses --      1.1027                 1.1017                 1.1028
 Frc consts  --      6.2920                 6.3040                 6.3372
 IR Inten    --      2.2964               121.5057                33.6874

                     52                     53                     54
                      A                      A                      A
 Frequencies --   3125.1450              3153.0288              3178.5605
 Red. masses --      1.1025                 1.0888                 1.0940
 Frc consts  --      6.3442                 6.3774                 6.5121
 IR Inten    --     43.8548                51.0313                46.5246

 - Thermochemistry -
 -------------------
 Temperature   298.150 Kelvin.  Pressure   1.00000 Atm.
 Atom     1 has atomic number  6 and mass  12.00000

 Molecular mass:   119.08608 amu.
 Principal axes and moments of inertia in atomic units:
                           1         2         3
     Eigenvalues --   527.507461640.804641784.24202
           X           -0.17188   0.94822   0.26709
           Y            0.73543  -0.05688   0.67521
           Z           -0.65544  -0.31248   0.68757
 This molecule is an asymmetric top.
 Rotational symmetry number  1.
 Warning -- assumption of classical behavior for rotation
           may cause significant error
 Rotational temperatures (Kelvin)      0.16419     0.05279     0.04854
 Rotational constants (GHZ):           3.42126     1.09991     1.01149
 Zero-point vibrational energy     451073.9 (Joules/Mol)
                                  107.80924 (Kcal/Mol)
 Warning -- explicit consideration of  11 degrees of freedom as
           vibrations may cause significant error
 Vibrational temperatures:     91.34   188.25   323.19   347.59   400.04
          (Kelvin)            444.55   452.64   585.87   673.70   790.22
                              821.81   898.41  1069.58  1092.71  1156.03
                             1306.70  1315.65  1336.75  1364.74  1394.21
                             1440.92  1447.47  1493.03  1544.24  1602.77
                             1637.93  1678.49  1714.51  1772.93  1808.03
                             1914.91  1933.98  1951.40  2000.05  2022.55
                             2048.21  2127.72  2132.66  2140.34  2146.17
                             2156.41  2294.89  2332.77  4378.61  4383.66
                             4394.03  4432.73  4457.29  4477.60  4483.76
                             4493.28  4496.39  4536.51  4573.24

 Zero-point correction=                           0.171805 (Hartree/Particle)
 Thermal correction to Energy=                    0.180294
 Thermal correction to Enthalpy=                  0.181239
 Thermal correction to Gibbs Free Energy=         0.138683
 Sum of electronic and zero-point Energies=           -349.386242
 Sum of electronic and thermal Energies=              -349.377752
 Sum of electronic and thermal Enthalpies=            -349.376808
 Sum of electronic and thermal Free Energies=         -349.419363

                     E (Thermal)             CV                S
                      KCal/Mol        Cal/Mol-Kelvin    Cal/Mol-Kelvin
 Total                  113.136             32.724             89.565
 Electronic               0.000              0.000              0.000
 Translational            0.889              2.981             40.239
 Rotational               0.889              2.981             28.825
 Vibrational            111.359             26.763             20.501
 Vibration     1          0.597              1.972              4.346
 Vibration     2          0.612              1.922              2.934
 Vibration     3          0.649              1.804              1.921
 Vibration     4          0.658              1.777              1.791
 Vibration     5          0.679              1.714              1.546
 Vibration     6          0.698              1.657              1.368
 Vibration     7          0.702              1.646              1.338
 Vibration     8          0.772              1.455              0.937
 Vibration     9          0.825              1.321              0.742
 Vibration    10          0.904              1.141              0.546
 Vibration    11          0.927              1.094              0.502

 Optimization completed.
    -- Stationary point found.
 Normal termination of Gaussian 16 at Fri May 30 01:18:01 2025.
