 Gaussian 16, Revision C.01,
 Gaussian 16:  AS64L-G16RevC.01  3-Jul-2019

 ----------------------------------------------------------------------
 # opt=(calcfc,tight) freq 6-311+g(d,p) nosymm scf=(qc,fermi,xqc) geom=
 connectivity int=ultrafine m062x
 ----------------------------------------------------------------------

 --------------------
 3-Me-phboh2-opt-freq
 --------------------
 Symbolic Z-matrix:
 Charge =  0 Multiplicity = 1

 SCF Done:  E(RM062X) =  -447.529108803     A.U. after   14 cycles
 SCF Done:  E(RM062X) =  -447.531481294     A.U. after   13 cycles
 SCF Done:  E(RM062X) =  -447.531471192     A.U. after   12 cycles
 SCF Done:  E(RM062X) =  -447.531508676     A.U. after   11 cycles
 SCF Done:  E(RM062X) =  -447.531515964     A.U. after   12 cycles
 SCF Done:  E(RM062X) =  -447.531518321     A.U. after   11 cycles
 SCF Done:  E(RM062X) =  -447.531519065     A.U. after   11 cycles
 SCF Done:  E(RM062X) =  -447.531520024     A.U. after   10 cycles
 SCF Done:  E(RM062X) =  -447.531520206     A.U. after   10 cycles
 SCF Done:  E(RM062X) =  -447.531520211     A.U. after    8 cycles
 SCF Done:  E(RM062X) =  -447.531520211     A.U. after    7 cycles
 Optimization completed on the basis of negligible forces.
    -- Stationary point found.
 Normal termination of Gaussian 16 at Tue Apr 22 20:50:21 2025.

 ----------------------------------------------------------------------
 #N Geom=AllCheck Guess=TCheck SCRF=Check GenChk RM062X/6-311+G(d,p) Fr
 eq
 ----------------------------------------------------------------------

 Structure from the checkpoint file:  "3-Me-phboh2-opt-freq.chk"
 --------------------
 3-Me-phboh2-opt-freq
 --------------------
 Charge =  0 Multiplicity = 1

                          Input orientation:
 ---------------------------------------------------------------------
 Center     Atomic      Atomic             Coordinates (Angstroms)
 Number     Number       Type             X           Y           Z
 ---------------------------------------------------------------------
      1          8           0        8.680650    7.479959    5.596898
      2          1           0        9.482899    7.175251    6.030333
      3          6           0        6.243053    6.995482    5.182227
      4          5           0        7.632824    6.633965    5.808132
      5          8           0        7.864885    5.515248    6.562944
      6          1           0        7.090838    4.968526    6.706391
      7          6           0        5.134165    6.149031    5.272303
      8          1           0        5.204204    5.190638    5.780089
      9          6           0        3.914570    6.511384    4.711682
     10          1           0        3.060045    5.849462    4.790056
     11          6           0        3.791226    7.727910    4.050724
     12          6           0        4.879666    8.595132    3.936101
     13          6           0        6.091565    8.212453    4.507256
     14          1           0        6.948831    8.874593    4.433239
     15          1           0        2.836924    8.010593    3.617391
     16          6           0        4.747305    9.898466    3.191246
     17          1           0        5.515625   10.607672    3.501288
     18          1           0        4.854835    9.739293    2.114759
     19          1           0        3.769882   10.353023    3.362574
 ---------------------------------------------------------------------

 SCF Done:  E(RM062X) =  -447.531520211     A.U. after    1 cycles

 Alpha  occ. eigenvalues --  -19.63789 -19.63014 -10.55230 -10.54899 -10.54606
 Alpha  occ. eigenvalues --  -10.54510 -10.54015 -10.53394 -10.52893  -7.08300
 Alpha  occ. eigenvalues --   -1.16832  -1.13114  -0.96511  -0.87347  -0.84377
 Alpha  occ. eigenvalues --   -0.77923  -0.69398  -0.67854  -0.64856  -0.62121
 Alpha  occ. eigenvalues --   -0.58555  -0.53760  -0.52328  -0.49808  -0.49211
 Alpha  occ. eigenvalues --   -0.47844  -0.47734  -0.45425  -0.44939  -0.44761
 Alpha  occ. eigenvalues --   -0.42489  -0.40457  -0.39870  -0.37883  -0.30949
 Alpha  occ. eigenvalues --   -0.30029
 Alpha virt. eigenvalues --   -0.00440  -0.00264   0.01561   0.01748   0.01871
 Alpha virt. eigenvalues --    0.03253   0.03382   0.03800   0.05040   0.05875
 Alpha virt. eigenvalues --    0.06496   0.06852   0.08752   0.08907   0.10231

 Mulliken charges:
               1
     1  O   -0.364049
     2  H    0.302348
     3  C   -0.437367
     4  B    0.458202
     5  O   -0.337555
     6  H    0.249936
     7  C   -0.100708
     8  H    0.119992
     9  C   -0.067479
    10  H    0.154817
    11  C   -0.483580
    12  C    0.976655
    13  C   -0.686905
    14  H    0.174873
    15  H    0.156754
    16  C   -0.654047
    17  H    0.170806
    18  H    0.200823
    19  H    0.166486
 Sum of Mulliken charges =   0.00000

 Dipole moment (field-independent basis, Debye):
    X=             -1.0690    Y=             -0.4993    Z=              0.0650  Tot=              1.1816
 Quadrupole moment (field-independent basis, Debye-Ang):
   XX=            -67.4034   YY=            -62.0233   ZZ=            -59.0389
   XY=             -9.8717   XZ=             -2.6410   YZ=             -6.2408

  Exact polarizability:     112.331      -0.162     103.401      16.234     -23.718      77.712
 Approx polarizability:     137.463       5.504     127.276      15.167     -24.600      96.618

                      1                      2                      3
                      A                      A                      A
 Frequencies --     26.0509                52.4941               133.5702
 Red. masses --      5.0315                 1.0226                 4.5212
 Frc consts  --      0.0020                 0.0017                 0.0475
 IR Inten    --      3.0225                 0.3309                 0.9355

                      4                      5                      6
                      A                      A                      A
 Frequencies --    150.5967               209.3677               312.1582
 Red. masses --      4.6452                 2.9213                 3.7637
 Frc consts  --      0.0621                 0.0754                 0.2161
 IR Inten    --      2.5181                 0.2314                 3.7130

                      7                      8                      9
                      A                      A                      A
 Frequencies --    343.0710               413.9725               439.6047
 Red. masses --      4.4869                 2.8781                 3.7040
 Frc consts  --      0.3111                 0.2906                 0.4217
 IR Inten    --      4.5037                 8.1432                 8.8315

                     10                     11                     12
                      A                      A                      A
 Frequencies --    465.2828               484.6499               525.6464
 Red. masses --      1.8582                 1.4198                 4.5054
 Frc consts  --      0.2370                 0.1965                 0.7334
 IR Inten    --     69.8760                81.4521                19.7358

                     13                     14                     15
                      A                      A                      A
 Frequencies --    548.6926               568.2320               677.7625
 Red. masses --      4.0840                 1.3603                 4.6619
 Frc consts  --      0.7244                 0.2588                 1.2617
 IR Inten    --     22.1448                35.5718                40.1700

                     16                     17                     18
                      A                      A                      A
 Frequencies --    709.8424               722.7800               806.9069
 Red. masses --      5.8996                 2.0187                 1.6548
 Frc consts  --      1.7514                 0.6214                 0.6348
 IR Inten    --      4.1914                83.1415                13.1844

                     19                     20                     21
                      A                      A                      A
 Frequencies --    884.4563               928.6704               948.1545
 Red. masses --      4.2441                 1.3309                 1.3475
 Frc consts  --      1.9561                 0.6763                 0.7137
 IR Inten    --      1.5510                 0.6349                 1.3320

                     22                     23                     24
                      A                      A                      A
 Frequencies --    991.3877              1007.8437              1015.7541
 Red. masses --      1.4102                 1.3400                 1.9413
 Frc consts  --      0.8166                 0.8019                 1.1801
 IR Inten    --    106.4221                 0.3773                10.2296

                     25                     26                     27
                      A                      A                      A
 Frequencies --   1019.0082              1034.2229              1069.9337
 Red. masses --      2.7071                 1.4670                 1.5771
 Frc consts  --      1.6562                 0.9245                 1.0637
 IR Inten    --     26.7680               135.4827                 6.2464

                     28                     29                     30
                      A                      A                      A
 Frequencies --   1120.3536              1147.9888              1201.0634
 Red. masses --      1.9246                 1.5019                 1.1565
 Frc consts  --      1.4233                 1.1662                 0.9830
 IR Inten    --      3.2227                25.7508                 1.3910

                     31                     32                     33
                      A                      A                      A
 Frequencies --   1247.9505              1302.6772              1345.3729
 Red. masses --      2.5498                 3.1952                 1.5871
 Frc consts  --      2.3396                 3.1946                 1.6925
 IR Inten    --     28.3191                 7.9822                 8.9075

                     34                     35                     36
                      A                      A                      A
 Frequencies --   1385.1025              1412.7347              1420.5135
 Red. masses --      3.7319                 2.1109                 2.1593
 Frc consts  --      4.2184                 2.4822                 2.5671
 IR Inten    --    402.6466               151.4967               153.3863

                     37                     38                     39
                      A                      A                      A
 Frequencies --   1463.3656              1495.4760              1501.6024
 Red. masses --      2.5038                 1.0495                 1.3240
 Frc consts  --      3.1590                 1.3829                 1.7589
 IR Inten    --    112.5199                 8.7940                38.1890

                     40                     41                     42
                      A                      A                      A
 Frequencies --   1536.8473              1655.5969              1677.0582
 Red. masses --      2.3996                 5.6508                 6.1354
 Frc consts  --      3.3393                 9.1258                10.1670
 IR Inten    --      8.0420                14.0420                 9.5594

                     43                     44                     45
                      A                      A                      A
 Frequencies --   3062.7062              3126.1725              3150.1792
 Red. masses --      1.0377                 1.0991                 1.1028
 Frc consts  --      5.7349                 6.3287                 6.4479
 IR Inten    --     19.7819                10.9390                 9.5610

                     46                     47                     48
                      A                      A                      A
 Frequencies --   3167.1681              3189.8817              3194.9862
 Red. masses --      1.0884                 1.0895                 1.0909
 Frc consts  --      6.4325                 6.5317                 6.5610
 IR Inten    --     18.9764                 9.3627                 3.6421

                     49                     50                     51
                      A                      A                      A
 Frequencies --   3216.4451              3909.9247              3948.0657
 Red. masses --      1.0959                 1.0653                 1.0659
 Frc consts  --      6.6802                 9.5950                 9.7894
 IR Inten    --     12.4416               106.8196                55.0382

 - Thermochemistry -
 -------------------
 Temperature   298.150 Kelvin.  Pressure   1.00000 Atm.
 Atom     1 has atomic number  8 and mass  15.99491

 Molecular mass:   136.06956 amu.
 Principal axes and moments of inertia in atomic units:
                           1         2         3
     Eigenvalues --   722.727672033.586202743.71523
           X            0.75144   0.60733  -0.25785
           Y           -0.45717   0.76104   0.46023
           Z            0.47575  -0.22796   0.84953
 This molecule is an asymmetric top.
 Rotational symmetry number  1.
 Warning -- assumption of classical behavior for rotation
           may cause significant error
 Rotational temperatures (Kelvin)      0.11984     0.04259     0.03157
 Rotational constants (GHZ):           2.49712     0.88747     0.65777
 Zero-point vibrational energy     402958.2 (Joules/Mol)
                                   96.30931 (Kcal/Mol)
 Warning -- explicit consideration of  14 degrees of freedom as
           vibrations may cause significant error
 Vibrational temperatures:     37.48    75.53   192.18   216.68   301.23
          (Kelvin)            449.13   493.60   595.61   632.49   669.44
                              697.30   756.29   789.45   817.56   975.15
                             1021.30  1039.92  1160.96  1272.54  1336.15
                             1364.18  1426.39  1450.06  1461.44  1466.13
                             1488.02  1539.40  1611.94  1651.70  1728.06
                             1795.52  1874.26  1935.69  1992.85  2032.61
                             2043.80  2105.46  2151.66  2160.47  2211.18
                             2382.03  2412.91  4406.55  4497.86  4532.41
                             4556.85  4589.53  4596.87  4627.75  5625.51
                             5680.39

 Zero-point correction=                           0.153479 (Hartree/Particle)
 Thermal correction to Energy=                    0.163198
 Thermal correction to Enthalpy=                  0.164142
 Thermal correction to Gibbs Free Energy=         0.117294
 Sum of electronic and zero-point Energies=           -447.378042
 Sum of electronic and thermal Energies=              -447.368322
 Sum of electronic and thermal Enthalpies=            -447.367378
 Sum of electronic and thermal Free Energies=         -447.414226

                     E (Thermal)             CV                S
                      KCal/Mol        Cal/Mol-Kelvin    Cal/Mol-Kelvin
 Total                  102.408             36.186             98.600
 Electronic               0.000              0.000              0.000
 Translational            0.889              2.981             40.636
 Rotational               0.889              2.981             29.779
 Vibrational            100.631             30.225             28.185
 Vibration     1          0.593              1.985              6.109
 Vibration     2          0.596              1.977              4.721
 Vibration     3          0.613              1.920              2.894
 Vibration     4          0.618              1.902              2.665
 Vibration     5          0.642              1.826              2.049
 Vibration     6          0.701              1.651              1.351
 Vibration     7          0.722              1.589              1.198
 Vibration     8          0.778              1.440              0.913
 Vibration     9          0.800              1.384              0.828
 Vibration    10          0.823              1.327              0.751
 Vibration    11          0.841              1.284              0.698
 Vibration    12          0.881              1.193              0.597
 Vibration    13          0.904              1.143              0.547
 Vibration    14          0.924              1.100              0.508

 Optimization completed.
    -- Stationary point found.
 Normal termination of Gaussian 16 at Tue Apr 22 20:52:02 2025.
