 Gaussian 16, Revision C.01,
 Gaussian 16:  AS64L-G16RevC.01  3-Jul-2019

 ----------------------------------------------------------------------
 # opt=(calcfc,tight) freq 6-311+g(d,p) scrf=(smd,solvent=thf) nosymm s
 cf=(qc,fermi,xqc) geom=connectivity int=ultrafine m062x
 ----------------------------------------------------------------------

 --------------------
 3-Me-ph-opt-freq-thf
 --------------------
 Symbolic Z-matrix:
 Charge =  0 Multiplicity = 2

 SCF Done:  E(UM062X) =  -270.823621224     A.U. after   16 cycles
 SCF Done:  E(UM062X) =  -270.828378487     A.U. after   15 cycles
 SCF Done:  E(UM062X) =  -270.828399482     A.U. after   12 cycles
 SCF Done:  E(UM062X) =  -270.828399579     A.U. after    9 cycles
 SCF Done:  E(UM062X) =  -270.828399580     A.U. after    6 cycles
 SCF Done:  E(UM062X) =  -270.828399580     A.U. after    4 cycles
 Optimization completed.
    -- Stationary point found.
 Normal termination of Gaussian 16 at Tue May  6 17:49:04 2025.

 ----------------------------------------------------------------------
 #N Geom=AllCheck Guess=TCheck SCRF=Check GenChk UM062X/6-311+G(d,p) Fr
 eq
 ----------------------------------------------------------------------

 Structure from the checkpoint file:  "3-Me-ph-opt-freq-thf.chk"
 --------------------
 3-Me-ph-opt-freq-thf
 --------------------
 Charge =  0 Multiplicity = 2

                          Input orientation:
 ---------------------------------------------------------------------
 Center     Atomic      Atomic             Coordinates (Angstroms)
 Number     Number       Type             X           Y           Z
 ---------------------------------------------------------------------
      1          6           0        6.163805    7.021307    5.162766
      2          6           0        5.128803    6.130835    5.296656
      3          1           0        5.230329    5.190832    5.826851
      4          6           0        3.915611    6.505160    4.704713
      5          1           0        3.057905    5.844789    4.775411
      6          6           0        3.806450    7.716281    4.029347
      7          6           0        4.891550    8.593783    3.917513
      8          6           0        6.110073    8.228363    4.507465
      9          1           0        6.970735    8.886488    4.441029
     10          1           0        2.859261    7.991819    3.576450
     11          6           0        4.749091    9.895567    3.174172
     12          1           0        5.662629   10.487970    3.237317
     13          1           0        4.531429    9.714346    2.118238
     14          1           0        3.925836   10.486993    3.582309
 ---------------------------------------------------------------------

 SCF Done:  E(UM062X) =  -270.828399580     A.U. after    1 cycles

 Alpha  occ. eigenvalues --  -10.56690 -10.55918 -10.54976 -10.54697 -10.54637
 Alpha  occ. eigenvalues --  -10.53965 -10.52783  -0.97304  -0.87542  -0.84432
 Alpha  occ. eigenvalues --   -0.77882  -0.68731  -0.65920  -0.58687  -0.53719
 Alpha  occ. eigenvalues --   -0.51091  -0.48854  -0.48283  -0.45363  -0.44205
 Alpha  occ. eigenvalues --   -0.43427  -0.40822  -0.31724  -0.30274  -0.30103
 Alpha virt. eigenvalues --    0.01530   0.01564   0.02021   0.03252   0.03929
 Alpha virt. eigenvalues --    0.05314   0.05545   0.06128   0.07175   0.08561
 Alpha virt. eigenvalues --    0.08576   0.08832   0.09772   0.11179   0.12708

  Beta  occ. eigenvalues --  -10.55836 -10.55741 -10.54895 -10.54703 -10.54645
  Beta  occ. eigenvalues --  -10.53996 -10.52776  -0.96503  -0.87026  -0.83170
  Beta  occ. eigenvalues --   -0.77639  -0.68019  -0.64385  -0.57952  -0.53029
  Beta  occ. eigenvalues --   -0.50293  -0.48710  -0.47831  -0.44701  -0.42825
  Beta  occ. eigenvalues --   -0.42707  -0.40419  -0.30960  -0.29879
  Beta virt. eigenvalues --   -0.04912   0.01526   0.02053   0.02637   0.03270
  Beta virt. eigenvalues --    0.04063   0.05356   0.05655   0.06605   0.07215
  Beta virt. eigenvalues --    0.08518   0.08822   0.09468   0.09525   0.11416

 Mulliken charges and spin densities:
               1          2
     1  C    0.259536   0.782997
     2  C   -0.446781   0.069088
     3  H    0.201954   0.017354
     4  C   -0.030210   0.018199
     5  H    0.195023   0.005687
     6  C   -0.244664  -0.027350
     7  C    0.761855   0.038438
     8  C   -0.862576   0.065132
     9  H    0.197179   0.017543
    10  H    0.191970   0.003655
    11  C   -0.809331   0.006786
    12  H    0.183805   0.000116
    13  H    0.204980   0.001146
    14  H    0.197260   0.001211
 Sum of Mulliken charges =   0.00000   1.00000

 Dipole moment (field-independent basis, Debye):
    X=             -1.1461    Y=              0.8235    Z=             -0.8240  Tot=              1.6342
 Quadrupole moment (field-independent basis, Debye-Ang):
   XX=            -51.4155   YY=            -24.8173   ZZ=            -51.1683
   XY=             -2.1614   XZ=             -8.5394   YZ=             -6.4407

  Exact polarizability:     111.163       6.070     116.261      11.773     -25.253      82.372
 Approx polarizability:     106.807       5.943     106.245      11.004     -20.891      78.031

                      1                      2                      3
                      A                      A                      A
 Frequencies --     44.0991               211.0300               348.0657
 Red. masses --      1.0553                 2.8976                 2.5788
 Frc consts  --      0.0012                 0.0760                 0.1841
 IR Inten    --      0.1800                 3.7782                 0.9202

                      4                      5                      6
                      A                      A                      A
 Frequencies --    420.8720               486.6636               517.2607
 Red. masses --      3.0803                 3.4731                 5.1305
 Frc consts  --      0.3215                 0.4846                 0.8088
 IR Inten    --      7.5677                 2.2784                 0.0368

                      7                      8                      9
                      A                      A                      A
 Frequencies --    624.3766               673.8397               774.0338
 Red. masses --      7.0464                 2.4249                 1.3402
 Frc consts  --      1.6185                 0.6487                 0.4731
 IR Inten    --      2.8781                40.0983                90.5863

                     10                     11                     12
                      A                      A                      A
 Frequencies --    796.9925               874.2987               914.1653
 Red. masses --      5.3759                 1.3186                 1.3215
 Frc consts  --      2.0119                 0.5939                 0.6507
 IR Inten    --      0.0743                 8.3036                 0.0344

                     13                     14                     15
                      A                      A                      A
 Frequencies --    992.1305              1005.2223              1011.4574
 Red. masses --      2.7437                 1.3336                 1.9236
 Frc consts  --      1.5912                 0.7940                 1.1595
 IR Inten    --      0.1717                 0.1439                 3.0927

                     16                     17                     18
                      A                      A                      A
 Frequencies --   1062.2628              1065.6764              1100.5019
 Red. masses --      1.5543                 2.2248                 1.4095
 Frc consts  --      1.0333                 1.4886                 1.0058
 IR Inten    --     10.7961                13.5345                16.9807

                     19                     20                     21
                      A                      A                      A
 Frequencies --   1167.4321              1222.5568              1293.7668
 Red. masses --      1.1342                 2.0752                 1.5733
 Frc consts  --      0.9108                 1.8274                 1.5516
 IR Inten    --      0.5292                 0.6368                 0.3596

                     22                     23                     24
                      A                      A                      A
 Frequencies --   1303.6356              1408.1928              1438.9473
 Red. masses --      3.9697                 1.2618                 2.2779
 Frc consts  --      3.9748                 1.4742                 2.7790
 IR Inten    --      1.8535                 0.9878                 0.4608

                     25                     26                     27
                      A                      A                      A
 Frequencies --   1476.0419              1483.2365              1499.7664
 Red. masses --      1.0463                 1.1794                 2.6708
 Frc consts  --      1.3430                 1.5287                 3.5395
 IR Inten    --     13.9160                27.2093                25.9921

                     28                     29                     30
                      A                      A                      A
 Frequencies --   1594.7437              1666.8866              3063.3386
 Red. masses --      5.6553                 7.1710                 1.0369
 Frc consts  --      8.4741                11.7393                 5.7327
 IR Inten    --     12.8208                34.7692                19.8696

                     31                     32                     33
                      A                      A                      A
 Frequencies --   3126.4470              3151.5888              3191.6976
 Red. masses --      1.1016                 1.1029                 1.0876
 Frc consts  --      6.3443                 6.4542                 6.5279
 IR Inten    --     10.5814                16.2253                 4.1680

                     34                     35                     36
                      A                      A                      A
 Frequencies --   3193.3187              3203.0568              3214.7603
 Red. masses --      1.0907                 1.0909                 1.0974
 Frc consts  --      6.5530                 6.5945                 6.6821
 IR Inten    --      1.8531                 4.1755                 5.3331

 - Thermochemistry -
 -------------------
 Temperature   298.150 Kelvin.  Pressure   1.00000 Atm.
 Atom     1 has atomic number  6 and mass  12.00000

 Molecular mass:    91.05478 amu.
 Principal axes and moments of inertia in atomic units:
                           1         2         3
     Eigenvalues --   302.81061 706.69709 998.32272
           X           -0.04432   0.96001  -0.27643
           Y            0.87638   0.17020   0.45055
           Z           -0.47958   0.22229   0.84888
 This molecule is an asymmetric top.
 Rotational symmetry number  1.
 Rotational temperatures (Kelvin)      0.28603     0.12256     0.08676
 Rotational constants (GHZ):           5.95997     2.55377     1.80777
 Zero-point vibrational energy     302789.0 (Joules/Mol)
                                   72.36830 (Kcal/Mol)
 Warning -- explicit consideration of   6 degrees of freedom as
           vibrations may cause significant error
 Vibrational temperatures:     63.45   303.63   500.79   605.54   700.20
          (Kelvin)            744.22   898.34   969.51  1113.66  1146.69
                             1257.92  1315.28  1427.45  1446.29  1455.26
                             1528.36  1533.27  1583.38  1679.67  1758.99
                             1861.44  1875.64  2026.08  2070.32  2123.70
                             2134.05  2157.83  2294.48  2398.28  4407.46
                             4498.26  4534.43  4592.14  4594.47  4608.48
                             4625.32

 Zero-point correction=                           0.115326 (Hartree/Particle)
 Thermal correction to Energy=                    0.121479
 Thermal correction to Enthalpy=                  0.122423
 Thermal correction to Gibbs Free Energy=         0.084255
 Sum of electronic and zero-point Energies=           -270.713073
 Sum of electronic and thermal Energies=              -270.706921
 Sum of electronic and thermal Enthalpies=            -270.705977
 Sum of electronic and thermal Free Energies=         -270.744144

                     E (Thermal)             CV                S
                      KCal/Mol        Cal/Mol-Kelvin    Cal/Mol-Kelvin
 Total                   76.229             22.757             80.331
 Electronic               0.000              0.000              1.377
 Translational            0.889              2.981             39.439
 Rotational               0.889              2.981             26.860
 Vibrational             74.452             16.796             12.655
 Vibration     1          0.595              1.980              5.066
 Vibration     2          0.643              1.824              2.035
 Vibration     3          0.726              1.579              1.175
 Vibration     4          0.783              1.425              0.889
 Vibration     5          0.843              1.280              0.692
 Vibration     6          0.872              1.212              0.616

 Optimization completed.
    -- Stationary point found.
 Normal termination of Gaussian 16 at Tue May  6 17:50:22 2025.
