 Gaussian 16, Revision C.01,
 Gaussian 16:  AS64L-G16RevC.01  3-Jul-2019

 ----------------------------------------------------------------------
 # opt=(calcfc,tight) freq 6-311+g(d,p) scrf=(smd,solvent=thf) nosymm s
 cf=(qc,fermi,xqc) geom=connectivity int=ultrafine m062x
 ----------------------------------------------------------------------

 -------------------------
 3-OMe-phboh2-opt-freq-thf
 -------------------------
 Symbolic Z-matrix:
 Charge =  0 Multiplicity = 1

 SCF Done:  E(RM062X) =  -522.752031284     A.U. after   14 cycles
 SCF Done:  E(RM062X) =  -522.752115823     A.U. after   11 cycles
 SCF Done:  E(RM062X) =  -522.752115875     A.U. after    9 cycles
 SCF Done:  E(RM062X) =  -522.752115877     A.U. after    7 cycles
 SCF Done:  E(RM062X) =  -522.752115877     A.U. after    4 cycles
 Optimization completed.
    -- Stationary point found.
 Normal termination of Gaussian 16 at Sat Apr 26 20:13:42 2025.

 ----------------------------------------------------------------------
 #N Geom=AllCheck Guess=TCheck SCRF=Check GenChk RM062X/6-311+G(d,p) Fr
 eq
 ----------------------------------------------------------------------

 Structure from the checkpoint file:  "3-OMe-phboh2-opt-freq-thf.chk"
 -------------------------
 3-OMe-phboh2-opt-freq-thf
 -------------------------
 Charge =  0 Multiplicity = 1

                          Input orientation:
 ---------------------------------------------------------------------
 Center     Atomic      Atomic             Coordinates (Angstroms)
 Number     Number       Type             X           Y           Z
 ---------------------------------------------------------------------
      1          8           0        8.635174    7.598835    5.603587
      2          1           0        9.476517    7.372675    6.016552
      3          6           0        6.242866    6.886021    5.236193
      4          5           0        7.669469    6.668387    5.854739
      5          8           0        8.005312    5.594303    6.631749
      6          1           0        7.295604    4.957190    6.756929
      7          6           0        5.161410    6.041652    5.533641
      8          1           0        5.274664    5.206294    6.218337
      9          6           0        3.918997    6.266864    4.959561
     10          1           0        3.085459    5.613900    5.192677
     11          6           0        3.718916    7.330699    4.079108
     12          6           0        4.786732    8.176938    3.778319
     13          6           0        6.037209    7.949969    4.360568
     14          1           0        6.850514    8.623291    4.112230
     15          1           0        2.740614    7.485389    3.643356
     16          8           0        4.704399    9.238222    2.938501
     17          6           0        3.450861    9.501722    2.327923
     18          1           0        3.599387   10.380369    1.703407
     19          1           0        3.131597    8.662459    1.703066
     20          1           0        2.683529    9.715385    3.077668
 ---------------------------------------------------------------------

 SCF Done:  E(RM062X) =  -522.752115877     A.U. after    1 cycles

 Alpha  occ. eigenvalues --  -19.65330 -19.63533 -19.62980 -10.60596 -10.58067
 Alpha  occ. eigenvalues --  -10.54635 -10.54445 -10.54157 -10.54031 -10.53197
 Alpha  occ. eigenvalues --   -7.08303  -1.19384  -1.16565  -1.12885  -0.95975
 Alpha  occ. eigenvalues --   -0.85595  -0.84546  -0.78559  -0.69716  -0.68265
 Alpha  occ. eigenvalues --   -0.64738  -0.62868  -0.59824  -0.55786  -0.55697
 Alpha  occ. eigenvalues --   -0.54662  -0.51993  -0.49373  -0.48123  -0.47856
 Alpha  occ. eigenvalues --   -0.45498  -0.45181  -0.44734  -0.42688  -0.40573
 Alpha  occ. eigenvalues --   -0.40366  -0.39243  -0.37768  -0.31387  -0.28065
 Alpha virt. eigenvalues --   -0.00254   0.00162   0.02053   0.02130   0.02474
 Alpha virt. eigenvalues --    0.03145   0.03480   0.03866   0.05180   0.05729
 Alpha virt. eigenvalues --    0.06408   0.07200   0.08164   0.08836   0.10066

 Mulliken charges:
               1
     1  O   -0.380720
     2  H    0.325826
     3  C   -0.449702
     4  B    0.514025
     5  O   -0.400120
     6  H    0.284115
     7  C   -0.120378
     8  H    0.167000
     9  C   -0.450602
    10  H    0.190171
    11  C    0.501711
    12  C   -0.384817
    13  C   -0.244955
    14  H    0.189768
    15  H    0.195544
    16  O   -0.160704
    17  C   -0.337223
    18  H    0.194139
    19  H    0.183437
    20  H    0.183483
 Sum of Mulliken charges =   0.00000

 Dipole moment (field-independent basis, Debye):
    X=             -2.9115    Y=             -1.3610    Z=             -0.1913  Tot=              3.2196
 Quadrupole moment (field-independent basis, Debye-Ang):
   XX=            -86.6413   YY=            -80.7461   ZZ=            -63.5981
   XY=            -31.5839   XZ=             -8.3777   YZ=            -14.0296

  Exact polarizability:     151.669       1.750     130.479      21.660     -35.924     115.422
 Approx polarizability:     140.289       6.561     125.993      14.034     -30.362     109.591

                      1                      2                      3
                      A                      A                      A
 Frequencies --     40.1967                79.7364               141.2225
 Red. masses --      5.2400                 3.2977                 5.5238
 Frc consts  --      0.0050                 0.0124                 0.0649
 IR Inten    --      4.1760                 5.8340                 3.0862

                      4                      5                      6
                      A                      A                      A
 Frequencies --    149.2074               221.7737               273.0729
 Red. masses --      4.5094                 2.2704                 3.4821
 Frc consts  --      0.0591                 0.0658                 0.1530
 IR Inten    --      0.1024                 2.5676                 5.8883

                      7                      8                      9
                      A                      A                      A
 Frequencies --    291.2569               312.2140               388.0157
 Red. masses --      1.3457                 5.5011                 5.3653
 Frc consts  --      0.0673                 0.3159                 0.4759
 IR Inten    --      2.7361                 5.6449                 5.7343

                     10                     11                     12
                      A                      A                      A
 Frequencies --    426.6466               455.6921               492.4962
 Red. masses --      3.0322                 1.1514                 4.8453
 Frc consts  --      0.3252                 0.1409                 0.6924
 IR Inten    --      5.6580               214.9883                 7.2489

                     13                     14                     15
                      A                      A                      A
 Frequencies --    515.4608               532.9780               576.9269
 Red. masses --      2.1754                 3.7236                 1.6417
 Frc consts  --      0.3406                 0.6232                 0.3220
 IR Inten    --      5.6770                53.7566                69.4567

                     16                     17                     18
                      A                      A                      A
 Frequencies --    579.2180               684.4662               710.6524
 Red. masses --      4.5782                 4.5683                 6.1935
 Frc consts  --      0.9050                 1.2610                 1.8429
 IR Inten    --     10.6205                23.7569                 7.3556

                     19                     20                     21
                      A                      A                      A
 Frequencies --    719.9933               808.5852               880.9766
 Red. masses --      2.4405                 1.5918                 4.9398
 Frc consts  --      0.7454                 0.6132                 2.2589
 IR Inten    --    120.4250                57.2203                23.8045

                     22                     23                     24
                      A                      A                      A
 Frequencies --    916.3769               928.4905              1000.4920
 Red. masses --      1.3823                 1.4516                 1.6679
 Frc consts  --      0.6839                 0.7373                 0.9837
 IR Inten    --      0.7639                17.2900               121.2059

                     25                     26                     27
                      A                      A                      A
 Frequencies --   1006.2007              1010.7075              1032.8459
 Red. masses --      1.4355                 3.1165                 1.4052
 Frc consts  --      0.8563                 1.8757                 0.8832
 IR Inten    --      0.9391                55.0682               190.6269

                     28                     29                     30
                      A                      A                      A
 Frequencies --   1094.3178              1113.1088              1145.7638
 Red. masses --      3.4635                 2.1982                 1.5810
 Frc consts  --      2.4438                 1.6047                 1.2228
 IR Inten    --    127.2289                48.4574                72.0418

                     31                     32                     33
                      A                      A                      A
 Frequencies --   1182.8973              1197.2126              1215.6180
 Red. masses --      1.2789                 1.1389                 1.3947
 Frc consts  --      1.0544                 0.9618                 1.2143
 IR Inten    --      1.5245                10.4325                 4.8994

                     34                     35                     36
                      A                      A                      A
 Frequencies --   1271.5692              1323.7152              1346.2371
 Red. masses --      3.0506                 2.0780                 2.8732
 Frc consts  --      2.9062                 2.1453                 3.0680
 IR Inten    --     81.6578                76.2890                49.6481

                     37                     38                     39
                      A                      A                      A
 Frequencies --   1373.3124              1398.9700              1471.8307
 Red. masses --      4.0746                 6.0391                 2.0496
 Frc consts  --      4.5277                 6.9637                 2.6159
 IR Inten    --    767.5504               414.6165               242.8433

                     40                     41                     42
                      A                      A                      A
 Frequencies --   1493.6214              1498.0120              1507.9959
 Red. masses --      1.4902                 1.0831                 1.0836
 Frc consts  --      1.9588                 1.4320                 1.4519
 IR Inten    --    108.5911                23.3908                 4.3554

                     43                     44                     45
                      A                      A                      A
 Frequencies --   1534.2475              1643.6055              1675.4354
 Red. masses --      2.5614                 5.6783                 6.5078
 Frc consts  --      3.5524                 9.0378                10.7631
 IR Inten    --     53.7774               126.3047                12.3262

                     46                     47                     48
                      A                      A                      A
 Frequencies --   3050.0230              3119.3380              3176.8602
 Red. masses --      1.0341                 1.1071                 1.1018
 Frc consts  --      5.6678                 6.3469                 6.5517
 IR Inten    --     48.8887                33.6488                18.7910

                     49                     50                     51
                      A                      A                      A
 Frequencies --   3181.1776              3209.5451              3211.8499
 Red. masses --      1.0894                 1.0925                 1.0922
 Frc consts  --      6.4954                 6.6305                 6.6386
 IR Inten    --     11.3275                13.1279                 1.5617

                     52                     53                     54
                      A                      A                      A
 Frequencies --   3238.2422              3852.8357              3882.6842
 Red. masses --      1.0933                 1.0652                 1.0660
 Frc consts  --      6.7548                 9.3161                 9.4687
 IR Inten    --      0.8953               188.5053               128.7330

 - Thermochemistry -
 -------------------
 Temperature   298.150 Kelvin.  Pressure   1.00000 Atm.
 Atom     1 has atomic number  8 and mass  15.99491

 Molecular mass:   152.06447 amu.
 Principal axes and moments of inertia in atomic units:
                           1         2         3
     Eigenvalues --   763.377562860.906243609.92162
           X            0.71736   0.64689  -0.25871
           Y           -0.42500   0.70056   0.57324
           Z            0.55206  -0.30126   0.77748
 This molecule is an asymmetric top.
 Rotational symmetry number  1.
 Warning -- assumption of classical behavior for rotation
           may cause significant error
 Rotational temperatures (Kelvin)      0.11346     0.03027     0.02399
 Rotational constants (GHZ):           2.36415     0.63083     0.49994
 Zero-point vibrational energy     416216.3 (Joules/Mol)
                                   99.47808 (Kcal/Mol)
 Warning -- explicit consideration of  16 degrees of freedom as
           vibrations may cause significant error
 Vibrational temperatures:     57.83   114.72   203.19   214.68   319.08
          (Kelvin)            392.89   419.05   449.21   558.27   613.85
                              655.64   708.59   741.63   766.84   830.07
                              833.37   984.79  1022.47  1035.91  1163.37
                             1267.53  1318.46  1335.89  1439.48  1447.70
                             1454.18  1486.03  1574.48  1601.52  1648.50
                             1701.93  1722.52  1749.00  1829.50  1904.53
                             1936.93  1975.89  2012.81  2117.64  2148.99
                             2155.31  2169.67  2207.44  2364.78  2410.58
                             4388.30  4488.03  4570.79  4577.01  4617.82
                             4621.14  4659.11  5543.37  5586.32

 Zero-point correction=                           0.158528 (Hartree/Particle)
 Thermal correction to Energy=                    0.168870
 Thermal correction to Enthalpy=                  0.169814
 Thermal correction to Gibbs Free Energy=         0.122191
 Sum of electronic and zero-point Energies=           -522.593587
 Sum of electronic and thermal Energies=              -522.583246
 Sum of electronic and thermal Enthalpies=            -522.582302
 Sum of electronic and thermal Free Energies=         -522.629925

                     E (Thermal)             CV                S
                      KCal/Mol        Cal/Mol-Kelvin    Cal/Mol-Kelvin
 Total                  105.967             39.207            100.231
 Electronic               0.000              0.000              0.000
 Translational            0.889              2.981             40.967
 Rotational               0.889              2.981             30.445
 Vibrational            104.190             33.245             28.818
 Vibration     1          0.594              1.981              5.249
 Vibration     2          0.600              1.963              3.897
 Vibration     3          0.615              1.912              2.787
 Vibration     4          0.618              1.904              2.682
 Vibration     5          0.648              1.808              1.945
 Vibration     6          0.676              1.723              1.577
 Vibration     7          0.687              1.690              1.467
 Vibration     8          0.701              1.650              1.351
 Vibration     9          0.756              1.496              1.008
 Vibration    10          0.788              1.412              0.870
 Vibration    11          0.814              1.348              0.779
 Vibration    12          0.848              1.267              0.677
 Vibration    13          0.870              1.216              0.621
 Vibration    14          0.888              1.177              0.581
 Vibration    15          0.933              1.081              0.491
 Vibration    16          0.936              1.076              0.487

 Optimization completed.
    -- Stationary point found.
 Normal termination of Gaussian 16 at Sat Apr 26 20:15:47 2025.
