 Gaussian 16, Revision C.01,
 Gaussian 16:  AS64L-G16RevC.01  3-Jul-2019

 ----------------------------------------------------------------------
 # opt=(calcfc,tight) freq 6-311+g(d,p) scrf=(smd,solvent=thf) nosymm s
 cf=(qc,fermi,xqc) geom=connectivity int=ultrafine m062x
 ----------------------------------------------------------------------

 ------------------------------
 4-beta-nap-phboh2-opt-freq-thf
 ------------------------------
 Symbolic Z-matrix:
 Charge =  0 Multiplicity = 1

 SCF Done:  E(RM062X) =  -792.879820683     A.U. after   15 cycles
 SCF Done:  E(RM062X) =  -792.879903941     A.U. after   12 cycles
 SCF Done:  E(RM062X) =  -792.879904281     A.U. after   11 cycles
 SCF Done:  E(RM062X) =  -792.879904820     A.U. after    9 cycles
 SCF Done:  E(RM062X) =  -792.879904824     A.U. after    9 cycles
 SCF Done:  E(RM062X) =  -792.879904825     A.U. after    7 cycles
 Optimization completed.
    -- Stationary point found.
 Normal termination of Gaussian 16 at Wed Apr 30 05:45:29 2025.

 ----------------------------------------------------------------------
 #N Geom=AllCheck Guess=TCheck SCRF=Check GenChk RM062X/6-311+G(d,p) Fr
 eq
 ----------------------------------------------------------------------

 Structure from the checkpoint file:  "4-beta-nap-phboh2-opt-freq-thf.chk"
 ------------------------------
 4-beta-nap-phboh2-opt-freq-thf
 ------------------------------
 Charge =  0 Multiplicity = 1

                          Input orientation:
 ---------------------------------------------------------------------
 Center     Atomic      Atomic             Coordinates (Angstroms)
 Number     Number       Type             X           Y           Z
 ---------------------------------------------------------------------
      1          8           0        8.335942    7.454719    6.595784
      2          1           0        9.164571    7.086927    6.923930
      3          6           0        6.236025    6.997106    5.281778
      4          5           0        7.606647    6.540361    5.892011
      5          8           0        8.121933    5.280000    5.760530
      6          1           0        7.580246    4.680167    5.239008
      7          6           0        5.371216    6.113748    4.626395
      8          1           0        5.624207    5.061854    4.522661
      9          6           0        4.163835    6.547712    4.089739
     10          1           0        3.511311    5.846361    3.580916
     11          6           0        3.785385    7.889234    4.188589
     12          6           0        4.640233    8.780912    4.846611
     13          1           0        4.351586    9.822012    4.946304
     14          6           0        5.840658    8.337874    5.385259
     15          1           0        6.485974    9.041965    5.899383
     16          6           0        2.474273    8.339259    3.648318
     17          6           0        2.377645    9.417207    2.707902
     18          6           0        1.326985    7.706920    4.071946
     19          6           0        3.516463   10.067995    2.156644
     20          6           0        1.086530    9.833882    2.272111
     21          6           0        0.050108    8.117909    3.626913
     22          1           0        1.404796    6.892746    4.784588
     23          6           0        3.376414   11.091498    1.255193
     24          1           0        4.508071    9.740621    2.443234
     25          6           0        0.975477   10.903922    1.344309
     26          6           0       -0.069203    9.165983    2.755270
     27          1           0       -0.831638    7.604009    3.991899
     28          6           0        2.091774   11.523929    0.850034
     29          1           0        4.257143   11.570419    0.842828
     30          1           0       -0.015731   11.214092    1.029876
     31          1           0       -1.043952    9.499206    2.414615
     32          1           0        1.996838   12.337808    0.140443
 ---------------------------------------------------------------------

 SCF Done:  E(RM062X) =  -792.879904825     A.U. after    1 cycles

 Alpha  occ. eigenvalues --  -19.63581 -19.63031 -10.56095 -10.56044 -10.55985
 Alpha  occ. eigenvalues --  -10.55659 -10.55016 -10.54604 -10.54585 -10.54563
 Alpha  occ. eigenvalues --  -10.54559 -10.54551 -10.54498 -10.54454 -10.54453
 Alpha  occ. eigenvalues --  -10.54421 -10.54363 -10.53096  -7.08336  -1.16599
 Alpha  occ. eigenvalues --   -1.12920  -0.99245  -0.96598  -0.92942  -0.89057
 Alpha  occ. eigenvalues --   -0.84864  -0.84499  -0.83988  -0.80875  -0.72040
 Alpha  occ. eigenvalues --   -0.70560  -0.69998  -0.68821  -0.66147  -0.64816
 Alpha  occ. eigenvalues --   -0.62697  -0.59975  -0.58755  -0.57155  -0.56429
 Alpha  occ. eigenvalues --   -0.53120  -0.52388  -0.51350  -0.50748  -0.49340
 Alpha  occ. eigenvalues --   -0.48942  -0.48406  -0.47907  -0.47003  -0.46565
 Alpha  occ. eigenvalues --   -0.45975  -0.45463  -0.43844  -0.43120  -0.40553
 Alpha  occ. eigenvalues --   -0.40417  -0.39914  -0.39691  -0.39331  -0.37614
 Alpha  occ. eigenvalues --   -0.35199  -0.31406  -0.31076  -0.30170  -0.26602
 Alpha virt. eigenvalues --   -0.02671  -0.00311   0.00050   0.00477   0.01481
 Alpha virt. eigenvalues --    0.01811   0.02042   0.02554   0.02814   0.03307
 Alpha virt. eigenvalues --    0.04064   0.04343   0.04541   0.04815   0.05241

 Mulliken charges:
               1
     1  O   -0.370341
     2  H    0.323926
     3  C   -0.494898
     4  B    0.531394
     5  O   -0.376543
     6  H    0.283373
     7  C   -0.331895
     8  H    0.170821
     9  C   -0.504422
    10  H    0.188014
    11  C    1.255107
    12  C   -0.606210
    13  H    0.192332
    14  C   -0.489766
    15  H    0.195706
    16  C    0.605271
    17  C    0.413475
    18  C   -0.324115
    19  C   -0.341333
    20  C    0.381734
    21  C   -0.412264
    22  H    0.189648
    23  C   -0.557948
    24  H    0.217234
    25  C   -0.191707
    26  C   -0.459495
    27  H    0.190369
    28  C   -0.440387
    29  H    0.189003
    30  H    0.191484
    31  H    0.191614
    32  H    0.190821
 Sum of Mulliken charges =   0.00000

 Dipole moment (field-independent basis, Debye):
    X=             -0.8927    Y=             -1.2373    Z=             -1.0157  Tot=              1.8329
 Quadrupole moment (field-independent basis, Debye-Ang):
   XX=           -105.5638   YY=           -117.2616   ZZ=           -120.1973
   XY=            -14.6785   XZ=             -5.9797   YZ=            -19.9782

  Exact polarizability:     333.045      -8.935     286.829      37.831     -68.698     225.990
 Approx polarizability:     301.550       2.895     273.009      23.219     -51.302     215.505

                      1                      2                      3
                      A                      A                      A
 Frequencies --     31.1330                42.7132                62.4617
 Red. masses --      5.6565                 5.7684                 5.0228
 Frc consts  --      0.0032                 0.0062                 0.0115
 IR Inten    --      2.9891                 0.0354                 0.4238

                      4                      5                      6
                      A                      A                      A
 Frequencies --     73.2715               132.0740               144.4776
 Red. masses --      4.0932                 5.1614                 5.7509
 Frc consts  --      0.0129                 0.0530                 0.0707
 IR Inten    --      1.3079                 1.1657                 0.4399

                      7                      8                      9
                      A                      A                      A
 Frequencies --    173.1556               198.3688               216.6452
 Red. masses --      4.2742                 4.1299                 6.9715
 Frc consts  --      0.0755                 0.0958                 0.1928
 IR Inten    --      5.0680                 2.4480                 0.5166

                     10                     11                     12
                      A                      A                      A
 Frequencies --    293.6908               312.7016               388.7263
 Red. masses --      5.1655                 4.2986                 5.0309
 Frc consts  --      0.2625                 0.2476                 0.4479
 IR Inten    --      2.6309                 3.3430                16.2959

                     13                     14                     15
                      A                      A                      A
 Frequencies --    410.0058               413.7705               422.0026
 Red. masses --      3.0543                 3.2425                 4.8211
 Frc consts  --      0.3025                 0.3271                 0.5059
 IR Inten    --      6.1547                16.8382                 3.1330

                     16                     17                     18
                      A                      A                      A
 Frequencies --    450.5197               470.9755               477.4913
 Red. masses --      3.2459                 1.1674                 3.3301
 Frc consts  --      0.3882                 0.1526                 0.4473
 IR Inten    --     18.7036               214.6310                 3.0913

                     19                     20                     21
                      A                      A                      A
 Frequencies --    495.9519               523.8938               538.9859
 Red. masses --      3.3875                 5.9709                 1.8020
 Frc consts  --      0.4909                 0.9655                 0.3084
 IR Inten    --     12.2530                 8.9866                17.2184

                     22                     23                     24
                      A                      A                      A
 Frequencies --    562.0015               579.9564               587.6846
 Red. masses --      3.6051                 3.3342                 2.8251
 Frc consts  --      0.6709                 0.6607                 0.5749
 IR Inten    --     20.5760                15.0698                 5.3301

                     25                     26                     27
                      A                      A                      A
 Frequencies --    641.0007               660.3288               667.9122
 Red. masses --      5.5366                 4.3399                 5.5353
 Frc consts  --      1.3403                 1.1149                 1.4549
 IR Inten    --      0.3542               128.9514                23.1835

                     28                     29                     30
                      A                      A                      A
 Frequencies --    671.5957               754.8587               758.2806
 Red. masses --      3.9047                 3.6179                 1.5927
 Frc consts  --      1.0377                 1.2146                 0.5396
 IR Inten    --     23.8470                 5.5773                 3.5886

                     31                     32                     33
                      A                      A                      A
 Frequencies --    778.6234               799.6436               804.6979
 Red. masses --      4.2562                 2.4877                 3.6913
 Frc consts  --      1.5203                 0.9372                 1.4083
 IR Inten    --      4.7247                50.8932                28.0665

                     34                     35                     36
                      A                      A                      A
 Frequencies --    825.4862               850.9434               869.2430
 Red. masses --      1.5591                 4.3923                 1.5793
 Frc consts  --      0.6260                 1.8739                 0.7031
 IR Inten    --    121.7498                 4.7759                30.6275

                     37                     38                     39
                      A                      A                      A
 Frequencies --    884.7440               898.1379               951.3441
 Red. masses --      1.3387                 1.5596                 1.4063
 Frc consts  --      0.6174                 0.7412                 0.7499
 IR Inten    --      8.0378                 2.0602                 0.6986

                     40                     41                     42
                      A                      A                      A
 Frequencies --    975.2328               992.5389               999.1522
 Red. masses --      5.4547                 1.5211                 1.3835
 Frc consts  --      3.0566                 0.8829                 0.8138
 IR Inten    --      9.5059               139.1083                 6.7644

                     43                     44                     45
                      A                      A                      A
 Frequencies --   1003.7572              1015.4717              1021.2290
 Red. masses --      1.3355                 1.3394                 1.3747
 Frc consts  --      0.7928                 0.8138                 0.8447
 IR Inten    --      0.5032                 3.1827                 1.9395

                     46                     47                     48
                      A                      A                      A
 Frequencies --   1025.2719              1029.4936              1039.6879
 Red. masses --      1.2983                 1.7577                 2.1828
 Frc consts  --      0.8041                 1.0976                 1.3902
 IR Inten    --      0.5629               180.1968                31.2506

                     49                     50                     51
                      A                      A                      A
 Frequencies --   1051.3876              1084.5849              1127.2917
 Red. masses --      2.5349                 2.1184                 2.5387
 Frc consts  --      1.6509                 1.4682                 1.9008
 IR Inten    --     20.8963                 3.8246                34.7415

                     52                     53                     54
                      A                      A                      A
 Frequencies --   1137.2764              1148.5211              1161.5003
 Red. masses --      1.5243                 1.6808                 1.2407
 Frc consts  --      1.1616                 1.3063                 0.9862
 IR Inten    --     12.2937                51.5498                 2.1952

                     55                     56                     57
                      A                      A                      A
 Frequencies --   1181.7911              1205.9429              1214.2746
 Red. masses --      1.1472                 1.3623                 1.2283
 Frc consts  --      0.9440                 1.1673                 1.0671
 IR Inten    --      1.1516                 3.1971                 2.6327

                     58                     59                     60
                      A                      A                      A
 Frequencies --   1228.5883              1276.1179              1291.5981
 Red. masses --      2.1546                 1.5946                 9.1930
 Frc consts  --      1.9162                 1.5299                 9.0357
 IR Inten    --      2.1767                 2.6805                21.3921

                     61                     62                     63
                      A                      A                      A
 Frequencies --   1320.7788              1332.0805              1369.3910
 Red. masses --      2.2224                 1.3228                 2.9036
 Frc consts  --      2.2842                 1.3830                 3.2081
 IR Inten    --      0.3250                 2.7972                 8.9695

                     64                     65                     66
                      A                      A                      A
 Frequencies --   1373.6618              1394.1429              1415.6124
 Red. masses --      4.3300                 4.9330                 7.1318
 Frc consts  --      4.8139                 5.6490                 8.4205
 IR Inten    --    815.3799               316.0632                 2.7839

                     67                     68                     69
                      A                      A                      A
 Frequencies --   1429.8147              1436.7040              1472.9528
 Red. masses --      2.2402                 3.2844                 2.3108
 Frc consts  --      2.6983                 3.9943                 2.9539
 IR Inten    --      7.1517               154.9357                 7.2733

                     70                     71                     72
                      A                      A                      A
 Frequencies --   1501.2664              1554.7067              1565.4478
 Red. masses --      2.6455                 2.9414                 3.7570
 Frc consts  --      3.5130                 4.1889                 5.4246
 IR Inten    --      0.1637                15.2500                14.0430

                     73                     74                     75
                      A                      A                      A
 Frequencies --   1618.7929              1651.9000              1664.4828
 Red. masses --      6.3835                 7.6453                 5.6059
 Frc consts  --      9.8558                12.2918                 9.1507
 IR Inten    --     13.3849                 6.6249                10.4023

                     76                     77                     78
                      A                      A                      A
 Frequencies --   1678.2253              1696.2741              3180.4996
 Red. masses --      6.2112                 6.5388                 1.0885
 Frc consts  --     10.3069                11.0851                 6.4872
 IR Inten    --     97.6396                 0.4186                22.0334

                     79                     80                     81
                      A                      A                      A
 Frequencies --   3196.4733              3197.3483              3197.5343
 Red. masses --      1.0884                 1.0886                 1.0884
 Frc consts  --      6.5520                 6.5568                 6.5563
 IR Inten    --      0.9025                 1.7220                 0.4605

                     82                     83                     84
                      A                      A                      A
 Frequencies --   3203.7524              3207.0758              3208.3189
 Red. masses --      1.0920                 1.0903                 1.0940
 Frc consts  --      6.6039                 6.6073                 6.6350
 IR Inten    --      9.4552                 7.4412                 8.2287

                     85                     86                     87
                      A                      A                      A
 Frequencies --   3212.5977              3220.2862              3221.0422
 Red. masses --      1.0955                 1.0957                 1.0976
 Frc consts  --      6.6614                 6.6949                 6.7092
 IR Inten    --      3.0141                12.0658                11.7275

                     88                     89                     90
                      A                      A                      A
 Frequencies --   3231.1299              3852.8897              3883.3299
 Red. masses --      1.0955                 1.0652                 1.0660
 Frc consts  --      6.7387                 9.3163                 9.4713
 IR Inten    --      6.2131               202.4219               125.5082

 - Thermochemistry -
 -------------------
 Temperature   298.150 Kelvin.  Pressure   1.00000 Atm.
 Atom     1 has atomic number  8 and mass  15.99491

 Molecular mass:   248.10086 amu.
 Principal axes and moments of inertia in atomic units:
                           1         2         3
     Eigenvalues --  1939.914679993.12849**********
           X            0.76467   0.61838  -0.18134
           Y           -0.44038   0.70687   0.55353
           Z            0.47048  -0.34341   0.81284
 This molecule is an asymmetric top.
 Rotational symmetry number  1.
 Warning -- assumption of classical behavior for rotation
           may cause significant error
 Rotational temperatures (Kelvin)      0.04465     0.00867     0.00767
 Rotational constants (GHZ):           0.93032     0.18060     0.15980
 Zero-point vibrational energy     667030.1 (Joules/Mol)
                                  159.42402 (Kcal/Mol)
 Warning -- explicit consideration of  24 degrees of freedom as
           vibrations may cause significant error
 Vibrational temperatures:     44.79    61.45    89.87   105.42   190.03
          (Kelvin)            207.87   249.13   285.41   311.70   422.56
                              449.91   559.29   589.91   595.32   607.17
                              648.20   677.63   687.00   713.56   753.77
                              775.48   808.59   834.43   845.55   922.26
                              950.07   960.98   966.28  1086.07  1091.00
                             1120.27  1150.51  1157.78  1187.69  1224.32
                             1250.65  1272.95  1292.22  1368.77  1403.14
                             1428.04  1437.56  1444.18  1461.04  1469.32
                             1475.14  1481.21  1495.88  1512.71  1560.48
                             1621.92  1636.29  1652.47  1671.14  1700.33
                             1735.08  1747.07  1767.66  1836.05  1858.32
                             1900.31  1916.57  1970.25  1976.39  2005.86
                             2036.75  2057.18  2067.10  2119.25  2159.99
                             2236.88  2252.33  2329.08  2376.72  2394.82
                             2414.59  2440.56  4576.03  4599.01  4600.27
                             4600.54  4609.49  4614.27  4616.06  4622.21
                             4633.27  4634.36  4648.88  5543.45  5587.25

 Zero-point correction=                           0.254058 (Hartree/Particle)
 Thermal correction to Energy=                    0.269122
 Thermal correction to Enthalpy=                  0.270066
 Thermal correction to Gibbs Free Energy=         0.210738
 Sum of electronic and zero-point Energies=           -792.625846
 Sum of electronic and thermal Energies=              -792.610783
 Sum of electronic and thermal Enthalpies=            -792.609839
 Sum of electronic and thermal Free Energies=         -792.669167

                     E (Thermal)             CV                S
                      KCal/Mol        Cal/Mol-Kelvin    Cal/Mol-Kelvin
 Total                  168.877             60.841            124.867
 Electronic               0.000              0.000              0.000
 Translational            0.889              2.981             42.427
 Rotational               0.889              2.981             33.748
 Vibrational            167.099             54.879             48.692
 Vibration     1          0.594              1.983              5.756
 Vibration     2          0.595              1.980              5.129
 Vibration     3          0.597              1.972              4.378
 Vibration     4          0.599              1.967              4.063
 Vibration     5          0.612              1.921              2.916
 Vibration     6          0.616              1.909              2.744
 Vibration     7          0.627              1.876              2.401
 Vibration     8          0.637              1.842              2.148
 Vibration     9          0.645              1.816              1.987
 Vibration    10          0.688              1.685              1.453
 Vibration    11          0.701              1.649              1.348
 Vibration    12          0.757              1.494              1.005
 Vibration    13          0.774              1.449              0.927
 Vibration    14          0.777              1.440              0.913
 Vibration    15          0.784              1.422              0.885
 Vibration    16          0.809              1.360              0.794
 Vibration    17          0.828              1.314              0.735
 Vibration    18          0.834              1.300              0.717
 Vibration    19          0.852              1.259              0.668
 Vibration    20          0.879              1.197              0.601
 Vibration    21          0.894              1.164              0.567
 Vibration    22          0.918              1.113              0.520
 Vibration    23          0.937              1.075              0.485
 Vibration    24          0.945              1.058              0.471

 Optimization completed.
    -- Stationary point found.
 Normal termination of Gaussian 16 at Wed Apr 30 05:55:42 2025.
