 Gaussian 16, Revision C.01,
 Gaussian 16:  AS64L-G16RevC.01  3-Jul-2019

 ----------------------------------------------------------------------
 # opt=(calcfc,tight) freq 6-311+g(d,p) scrf=(smd,solvent=thf) nosymm s
 cf=(qc,fermi,xqc) geom=connectivity int=ultrafine m062x
 ----------------------------------------------------------------------

 --------------------------------
 4-beta-nap-ph-anion-opt-freq-thf
 --------------------------------
 Symbolic Z-matrix:
 Charge = -1 Multiplicity = 1

 SCF Done:  E(RM062X) =  -616.272127031     A.U. after   17 cycles
 SCF Done:  E(RM062X) =  -616.285523107     A.U. after   15 cycles
 SCF Done:  E(RM062X) =  -616.285919077     A.U. after   13 cycles
 SCF Done:  E(RM062X) =  -616.285922892     A.U. after   13 cycles
 SCF Done:  E(RM062X) =  -616.285923858     A.U. after   12 cycles
 SCF Done:  E(RM062X) =  -616.285923880     A.U. after    9 cycles
 SCF Done:  E(RM062X) =  -616.285923880     A.U. after    7 cycles
 Optimization completed.
    -- Stationary point found.
 Normal termination of Gaussian 16 at Tue May 27 08:11:27 2025.

 ----------------------------------------------------------------------
 #N Geom=AllCheck Guess=TCheck SCRF=Check GenChk RM062X/6-311+G(d,p) Fr
 eq
 ----------------------------------------------------------------------

 Structure from the checkpoint file:  "4-beta-nap-ph-anion-opt-freq-thf.chk"
 --------------------------------
 4-beta-nap-ph-anion-opt-freq-thf
 --------------------------------
 Charge = -1 Multiplicity = 1

                          Input orientation:
 ---------------------------------------------------------------------
 Center     Atomic      Atomic             Coordinates (Angstroms)
 Number     Number       Type             X           Y           Z
 ---------------------------------------------------------------------
      1          6           0        6.307750    6.965738    5.313299
      2          6           0        5.381804    6.122520    4.655273
      3          1           0        5.609812    5.060804    4.545679
      4          6           0        4.163679    6.546887    4.114560
      5          1           0        3.504624    5.838067    3.617137
      6          6           0        3.782793    7.890085    4.188372
      7          6           0        4.658937    8.772122    4.830835
      8          1           0        4.384050    9.821014    4.921914
      9          6           0        5.863191    8.308981    5.367796
     10          1           0        6.484955    9.057535    5.862048
     11          6           0        2.471559    8.340593    3.650601
     12          6           0        2.367491    9.420484    2.709619
     13          6           0        1.317893    7.707596    4.062307
     14          6           0        3.506872   10.072849    2.160407
     15          6           0        1.077421    9.838243    2.269260
     16          6           0        0.042405    8.113178    3.608650
     17          1           0        1.392735    6.893197    4.774840
     18          6           0        3.370683   11.099376    1.261581
     19          1           0        4.495137    9.739453    2.450707
     20          6           0        0.969464   10.913019    1.345726
     21          6           0       -0.079686    9.165380    2.741562
     22          1           0       -0.839264    7.593351    3.966610
     23          6           0        2.086886   11.535236    0.856402
     24          1           0        4.253150   11.577059    0.851249
     25          1           0       -0.020939   11.224746    1.029576
     26          1           0       -1.054191    9.496436    2.397822
     27          1           0        1.993212   12.352232    0.149924
 ---------------------------------------------------------------------

 SCF Done:  E(RM062X) =  -616.285923880     A.U. after    1 cycles

 Alpha  occ. eigenvalues --  -10.54419 -10.54324 -10.54162 -10.53396 -10.53284
 Alpha  occ. eigenvalues --  -10.53196 -10.53140 -10.53088 -10.53036 -10.52754
 Alpha  occ. eigenvalues --  -10.51602 -10.50440 -10.50433 -10.49024 -10.48986
 Alpha  occ. eigenvalues --  -10.45017  -0.97471  -0.92507  -0.90717  -0.86311
 Alpha  occ. eigenvalues --   -0.82679  -0.81453  -0.79409  -0.76917  -0.69800
 Alpha  occ. eigenvalues --   -0.68637  -0.66709  -0.63548  -0.61679  -0.57645
 Alpha  occ. eigenvalues --   -0.57171  -0.55540  -0.52530  -0.50184  -0.48363
 Alpha  occ. eigenvalues --   -0.47562  -0.47322  -0.46721  -0.45374  -0.44668
 Alpha  occ. eigenvalues --   -0.43676  -0.43481  -0.40995  -0.39863  -0.38425
 Alpha  occ. eigenvalues --   -0.38001  -0.36791  -0.34204  -0.33234  -0.28867
 Alpha  occ. eigenvalues --   -0.26979  -0.26632  -0.23748  -0.19701
 Alpha virt. eigenvalues --   -0.00736   0.01929   0.02577   0.03629   0.03827
 Alpha virt. eigenvalues --    0.04245   0.05025   0.05297   0.05516   0.05785
 Alpha virt. eigenvalues --    0.06794   0.06973   0.07128   0.07805   0.08255

 Mulliken charges:
               1
     1  C   -1.050051
     2  C   -0.162417
     3  H    0.146590
     4  C   -0.506959
     5  H    0.160254
     6  C    0.953201
     7  C   -0.613007
     8  H    0.165046
     9  C   -0.214809
    10  H    0.145988
    11  C    0.412901
    12  C    0.262941
    13  C   -0.142903
    14  C   -0.464438
    15  C    0.402433
    16  C   -0.670952
    17  H    0.185693
    18  C   -0.501693
    19  H    0.219340
    20  C   -0.059509
    21  C   -0.080359
    22  H    0.187663
    23  C   -0.519905
    24  H    0.185990
    25  H    0.187077
    26  H    0.185207
    27  H    0.186678
 Sum of Mulliken charges =  -1.00000

 Dipole moment (field-independent basis, Debye):
    X=            -29.6707    Y=            -33.8282    Z=            -25.1411  Tot=             51.5439
 Quadrupole moment (field-independent basis, Debye-Ang):
   XX=           -281.9614   YY=           -333.3737   ZZ=           -233.5976
   XY=           -203.9128   XZ=           -158.1503   YZ=           -180.8801

  Exact polarizability:     337.405      -9.843     286.523      37.402     -72.678     229.714
 Approx polarizability:     294.341       3.930     265.617      20.285     -53.819     211.344

                      1                      2                      3
                      A                      A                      A
 Frequencies --     58.4904                78.5044                87.8265
 Red. masses --      4.0339                 4.3345                 5.6205
 Frc consts  --      0.0081                 0.0157                 0.0255
 IR Inten    --      1.3801                 3.4080                14.3815

                      4                      5                      6
                      A                      A                      A
 Frequencies --    168.2477               185.7131               251.2226
 Red. masses --      4.1474                 3.9412                 5.9879
 Frc consts  --      0.0692                 0.0801                 0.2227
 IR Inten    --      1.6032                 1.5451                16.3172

                      7                      8                      9
                      A                      A                      A
 Frequencies --    293.7729               313.6804               382.2186
 Red. masses --      5.5251                 4.3796                 2.6710
 Frc consts  --      0.2809                 0.2539                 0.2299
 IR Inten    --     10.8170                 2.2672                 2.4643

                     10                     11                     12
                      A                      A                      A
 Frequencies --    408.1641               444.2769               478.5955
 Red. masses --      4.1457                 3.2485                 3.3914
 Frc consts  --      0.4069                 0.3778                 0.4577
 IR Inten    --     17.0183                13.6657                 0.8123

                     13                     14                     15
                      A                      A                      A
 Frequencies --    498.3881               527.8178               564.4539
 Red. masses --      4.9895                 7.0946                 4.7404
 Frc consts  --      0.7302                 1.1645                 0.8899
 IR Inten    --      8.3133                 2.2436                 9.1629

                     16                     17                     18
                      A                      A                      A
 Frequencies --    587.1618               620.6098               640.3989
 Red. masses --      3.2685                 7.3226                 5.9417
 Frc consts  --      0.6639                 1.6617                 1.4357
 IR Inten    --     19.4804                20.3592                 0.4830

                     19                     20                     21
                      A                      A                      A
 Frequencies --    669.4186               705.9154               735.4263
 Red. masses --      3.8410                 5.9842                 2.5916
 Frc consts  --      1.0141                 1.7570                 0.8258
 IR Inten    --      3.5966                 3.0296                 8.2233

                     22                     23                     24
                      A                      A                      A
 Frequencies --    756.4589               795.9910               804.0322
 Red. masses --      1.3950                 2.5627                 3.6055
 Frc consts  --      0.4703                 0.9567                 1.3733
 IR Inten    --      1.4305                29.7714                31.9228

                     25                     26                     27
                      A                      A                      A
 Frequencies --    818.4305               836.0594               848.8413
 Red. masses --      1.5115                 2.0329                 3.3182
 Frc consts  --      0.5965                 0.8372                 1.4087
 IR Inten    --    153.7337                16.5574                 4.8535

                     28                     29                     30
                      A                      A                      A
 Frequencies --    886.3326               895.9281               943.1265
 Red. masses --      1.2651                 1.5523                 1.4090
 Frc consts  --      0.5856                 0.7341                 0.7384
 IR Inten    --      0.9493                 2.1775                 0.4530

                     31                     32                     33
                      A                      A                      A
 Frequencies --    971.7323               987.9818               990.2077
 Red. masses --      5.8176                 4.6484                 1.4847
 Frc consts  --      3.2366                 2.6733                 0.8577
 IR Inten    --     10.7190                 2.8856                 2.3399

                     34                     35                     36
                      A                      A                      A
 Frequencies --   1001.0652              1006.4550              1012.3294
 Red. masses --      1.3442                 1.4167                 1.3404
 Frc consts  --      0.7937                 0.8455                 0.8093
 IR Inten    --      0.6741                 0.1264                 2.9822

                     37                     38                     39
                      A                      A                      A
 Frequencies --   1022.4437              1045.4912              1053.2384
 Red. masses --      1.2912                 2.8367                 2.2562
 Frc consts  --      0.7953                 1.8268                 1.4746
 IR Inten    --      0.1053                14.6689                19.1034

                     40                     41                     42
                      A                      A                      A
 Frequencies --   1083.5916              1102.3834              1138.7670
 Red. masses --      2.0501                 1.5802                 1.8090
 Frc consts  --      1.4182                 1.1314                 1.3822
 IR Inten    --      1.4590                 0.5426                 5.3038

                     43                     44                     45
                      A                      A                      A
 Frequencies --   1159.7907              1176.6308              1201.2706
 Red. masses --      1.2505                 1.1385                 1.3421
 Frc consts  --      0.9910                 0.9287                 1.1411
 IR Inten    --      1.3089                 1.8332                 0.4144

                     46                     47                     48
                      A                      A                      A
 Frequencies --   1209.8240              1225.4289              1241.2729
 Red. masses --      1.2894                 2.2925                 6.1969
 Frc consts  --      1.1119                 2.0283                 5.6255
 IR Inten    --      3.3078                 2.6011                32.9568

                     49                     50                     51
                      A                      A                      A
 Frequencies --   1271.3482              1316.4250              1326.7480
 Red. masses --      1.6011                 2.1377                 1.3723
 Frc consts  --      1.5247                 2.1826                 1.4233
 IR Inten    --      0.8157                 1.5435                 1.3839

                     52                     53                     54
                      A                      A                      A
 Frequencies --   1362.7141              1397.1015              1413.9503
 Red. masses --      2.6285                 2.4082                 6.9978
 Frc consts  --      2.8758                 2.7695                 8.2428
 IR Inten    --      3.0225                 2.0761                 1.1702

                     55                     56                     57
                      A                      A                      A
 Frequencies --   1425.6258              1468.8768              1489.7531
 Red. masses --      2.1848                 2.2811                 2.2028
 Frc consts  --      2.6162                 2.8998                 2.8805
 IR Inten    --     52.8660                 5.9082                 2.6289

                     58                     59                     60
                      A                      A                      A
 Frequencies --   1505.2216              1558.2683              1575.6643
 Red. masses --      2.8406                 3.9933                 5.8886
 Frc consts  --      3.7920                 5.7130                 8.6137
 IR Inten    --      1.5439                13.4910                10.2761

                     61                     62                     63
                      A                      A                      A
 Frequencies --   1622.8827              1648.6309              1661.4399
 Red. masses --      5.5124                 7.6310                 5.6382
 Frc consts  --      8.5539                12.2202                 9.1698
 IR Inten    --      6.5700                36.2060                 6.7446

                     64                     65                     66
                      A                      A                      A
 Frequencies --   1694.0104              3102.8495              3104.0966
 Red. masses --      6.5188                 1.0862                 1.0862
 Frc consts  --     11.0218                 6.1612                 6.1661
 IR Inten    --      0.6717               100.5252                45.7371

                     67                     68                     69
                      A                      A                      A
 Frequencies --   3159.1590              3160.5783              3193.3375
 Red. masses --      1.0916                 1.0924                 1.0879
 Frc consts  --      6.4186                 6.4295                 6.5360
 IR Inten    --     64.6653                22.1741                 1.1853

                     70                     71                     72
                      A                      A                      A
 Frequencies --   3194.1966              3202.4887              3205.1988
 Red. masses --      1.0874                 1.0917                 1.0905
 Frc consts  --      6.5369                 6.5970                 6.6008
 IR Inten    --      0.2533                13.7871                11.2682

                     73                     74                     75
                      A                      A                      A
 Frequencies --   3216.6070              3218.2464              3231.6894
 Red. masses --      1.0977                 1.0959                 1.0951
 Frc consts  --      6.6917                 6.6877                 6.7383
 IR Inten    --     18.6716                13.7598                 6.0176

 - Thermochemistry -
 -------------------
 Temperature   298.150 Kelvin.  Pressure   1.00000 Atm.
 Atom     1 has atomic number  6 and mass  12.00000

 Molecular mass:   203.08608 amu.
 Principal axes and moments of inertia in atomic units:
                           1         2         3
     Eigenvalues --  1670.853594719.169305999.18636
           X            0.67308   0.72565  -0.14282
           Y           -0.52830   0.60689   0.59379
           Z            0.51756  -0.32421   0.79184
 This molecule is an asymmetric top.
 Rotational symmetry number  1.
 Warning -- assumption of classical behavior for rotation
           may cause significant error
 Rotational temperatures (Kelvin)      0.05184     0.01835     0.01444
 Rotational constants (GHZ):           1.08013     0.38243     0.30083
 Zero-point vibrational energy     566088.0 (Joules/Mol)
                                  135.29827 (Kcal/Mol)
 Warning -- explicit consideration of  17 degrees of freedom as
           vibrations may cause significant error
 Vibrational temperatures:     84.15   112.95   126.36   242.07   267.20
          (Kelvin)            361.45   422.67   451.32   549.93   587.26
                              639.22   688.59   717.07   759.41   812.12
                              844.79   892.92   921.39   963.14  1015.65
                             1058.11  1088.38  1145.25  1156.82  1177.54
                             1202.90  1221.29  1275.23  1289.04  1356.95
                             1398.11  1421.49  1424.69  1440.31  1448.06
                             1456.52  1471.07  1504.23  1515.38  1559.05
                             1586.08  1638.43  1668.68  1692.91  1728.36
                             1740.67  1763.12  1785.91  1829.19  1894.04
                             1908.89  1960.64  2010.12  2034.36  2051.16
                             2113.39  2143.42  2165.68  2242.00  2267.03
                             2334.97  2372.01  2390.44  2437.30  4464.31
                             4466.10  4545.33  4547.37  4594.50  4595.74
                             4607.67  4611.57  4627.98  4630.34  4649.68

 Zero-point correction=                           0.215612 (Hartree/Particle)
 Thermal correction to Energy=                    0.227049
 Thermal correction to Enthalpy=                  0.227993
 Thermal correction to Gibbs Free Energy=         0.177644
 Sum of electronic and zero-point Energies=           -616.070312
 Sum of electronic and thermal Energies=              -616.058875
 Sum of electronic and thermal Enthalpies=            -616.057931
 Sum of electronic and thermal Free Energies=         -616.108280

                     E (Thermal)             CV                S
                      KCal/Mol        Cal/Mol-Kelvin    Cal/Mol-Kelvin
 Total                  142.475             47.359            105.968
 Electronic               0.000              0.000              0.000
 Translational            0.889              2.981             41.830
 Rotational               0.889              2.981             32.225
 Vibrational            140.698             41.397             31.913
 Vibration     1          0.596              1.974              4.507
 Vibration     2          0.600              1.964              3.928
 Vibration     3          0.601              1.958              3.708
 Vibration     4          0.625              1.882              2.455
 Vibration     5          0.632              1.859              2.270
 Vibration     6          0.663              1.761              1.722
 Vibration     7          0.689              1.685              1.452
 Vibration     8          0.702              1.648              1.343
 Vibration     9          0.752              1.508              1.030
 Vibration    10          0.773              1.452              0.933
 Vibration    11          0.804              1.374              0.813
 Vibration    12          0.835              1.298              0.714
 Vibration    13          0.854              1.254              0.662
 Vibration    14          0.883              1.188              0.592
 Vibration    15          0.920              1.108              0.515
 Vibration    16          0.944              1.059              0.472
 Vibration    17          0.981              0.988              0.416

 Optimization completed.
    -- Stationary point found.
 Normal termination of Gaussian 16 at Tue May 27 08:17:59 2025.
