 Gaussian 16, Revision C.01,
 Gaussian 16:  AS64L-G16RevC.01  3-Jul-2019

 ----------------------------------------------------------------------
 # opt=(calcfc,tight) freq 6-311+g(d,p) nosymm scf=(qc,fermi,xqc) geom=
 connectivity int=ultrafine m062x
 ----------------------------------------------------------------------

 --------------------------
 4-beta-nap-phboh2-opt-freq
 --------------------------
 Symbolic Z-matrix:
 Charge =  0 Multiplicity = 1

 SCF Done:  E(RM062X) =  -792.673274690     A.U. after   15 cycles
 SCF Done:  E(RM062X) =  -792.755642796     A.U. after   16 cycles
 SCF Done:  E(RM062X) =  -792.811303623     A.U. after   16 cycles
 SCF Done:  E(RM062X) =  -792.791617852     A.U. after   15 cycles
 SCF Done:  E(RM062X) =  -792.828053992     A.U. after   16 cycles
 SCF Done:  E(RM062X) =  -792.831784126     A.U. after   15 cycles
 SCF Done:  E(RM062X) =  -792.832838279     A.U. after   15 cycles
 SCF Done:  E(RM062X) =  -792.834566610     A.U. after   15 cycles
 SCF Done:  E(RM062X) =  -792.838875863     A.U. after   16 cycles
 SCF Done:  E(RM062X) =  -792.827639558     A.U. after   15 cycles
 SCF Done:  E(RM062X) =  -792.857241885     A.U. after   10 cycles
 SCF Done:  E(RM062X) =  -792.857241946     A.U. after   10 cycles
 SCF Done:  E(RM062X) =  -792.857241956     A.U. after    9 cycles
 SCF Done:  E(RM062X) =  -792.857241960     A.U. after    8 cycles
 SCF Done:  E(RM062X) =  -792.857241960     A.U. after    8 cycles
 SCF Done:  E(RM062X) =  -792.857241960     A.U. after    8 cycles
 SCF Done:  E(RM062X) =  -792.857241961     A.U. after    6 cycles
 SCF Done:  E(RM062X) =  -792.857241961     A.U. after    8 cycles
 SCF Done:  E(RM062X) =  -792.857241961     A.U. after    7 cycles
 Optimization completed.
    -- Stationary point found.
 Normal termination of Gaussian 16 at Sat Apr 26 20:54:59 2025.

 ----------------------------------------------------------------------
 #N Geom=AllCheck Guess=TCheck SCRF=Check GenChk RM062X/6-311+G(d,p) Fr
 eq
 ----------------------------------------------------------------------

 Structure from the checkpoint file:  "4-beta-nap-phboh2-opt-freq.chk"
 --------------------------
 4-beta-nap-phboh2-opt-freq
 --------------------------
 Charge =  0 Multiplicity = 1

                          Input orientation:
 ---------------------------------------------------------------------
 Center     Atomic      Atomic             Coordinates (Angstroms)
 Number     Number       Type             X           Y           Z
 ---------------------------------------------------------------------
      1          8           0        8.335259    7.467317    6.578702
      2          1           0        9.158988    7.098524    6.910093
      3          6           0        6.234782    6.999790    5.274163
      4          5           0        7.603565    6.548840    5.887093
      5          8           0        8.117104    5.285116    5.770945
      6          1           0        7.575557    4.681659    5.259966
      7          6           0        5.380626    6.122119    4.600459
      8          1           0        5.645363    5.074763    4.478898
      9          6           0        4.172287    6.553081    4.065567
     10          1           0        3.527185    5.859145    3.538148
     11          6           0        3.781940    7.888030    4.187864
     12          6           0        4.626900    8.775144    4.863091
     13          1           0        4.324151    9.810503    4.977374
     14          6           0        5.829094    8.335024    5.398070
     15          1           0        6.471318    9.029631    5.927978
     16          6           0        2.470493    8.337986    3.651175
     17          6           0        2.376376    9.412148    2.708556
     18          6           0        1.323195    7.712787    4.081524
     19          6           0        3.517815   10.055214    2.156380
     20          6           0        1.087691    9.832750    2.273661
     21          6           0        0.047716    8.126931    3.637628
     22          1           0        1.403006    6.904597    4.800180
     23          6           0        3.382641   11.077037    1.253739
     24          1           0        4.505630    9.719325    2.445435
     25          6           0        0.982332   10.899697    1.343559
     26          6           0       -0.068150    9.170881    2.761955
     27          1           0       -0.835832    7.620064    4.006712
     28          6           0        2.100466   11.513518    0.848198
     29          1           0        4.265021   11.550856    0.840279
     30          1           0       -0.006357   11.214837    1.027482
     31          1           0       -1.042671    9.505366    2.423116
     32          1           0        2.008273   12.325678    0.137033
 ---------------------------------------------------------------------

 SCF Done:  E(RM062X) =  -792.857241961     A.U. after    1 cycles

 Alpha  occ. eigenvalues --  -19.64048 -19.63252 -10.56269 -10.56129 -10.56029
 Alpha  occ. eigenvalues --  -10.55774 -10.55574 -10.55005 -10.54935 -10.54886
 Alpha  occ. eigenvalues --  -10.54880 -10.54818 -10.54785 -10.54774 -10.54716
 Alpha  occ. eigenvalues --  -10.54704 -10.54627 -10.53285  -7.08582  -1.17076
 Alpha  occ. eigenvalues --   -1.13366  -0.99431  -0.96848  -0.93183  -0.89308
 Alpha  occ. eigenvalues --   -0.85167  -0.84783  -0.84253  -0.81155  -0.72361
 Alpha  occ. eigenvalues --   -0.70901  -0.70328  -0.69261  -0.66522  -0.65296
 Alpha  occ. eigenvalues --   -0.63187  -0.60391  -0.59222  -0.57565  -0.56863
 Alpha  occ. eigenvalues --   -0.53524  -0.52880  -0.51707  -0.51167  -0.49753
 Alpha  occ. eigenvalues --   -0.49413  -0.48744  -0.48200  -0.47329  -0.46780
 Alpha  occ. eigenvalues --   -0.46403  -0.45720  -0.43976  -0.43578  -0.40930
 Alpha  occ. eigenvalues --   -0.40707  -0.40177  -0.40032  -0.39637  -0.37987
 Alpha  occ. eigenvalues --   -0.35203  -0.31590  -0.31149  -0.30185  -0.26698
 Alpha virt. eigenvalues --   -0.02721  -0.00519  -0.00412   0.00358   0.01148
 Alpha virt. eigenvalues --    0.01402   0.01540   0.01990   0.02284   0.03028
 Alpha virt. eigenvalues --    0.03603   0.03905   0.03992   0.04562   0.04883

 Mulliken charges:
               1
     1  O   -0.338537
     2  H    0.302013
     3  C   -0.466262
     4  B    0.503938
     5  O   -0.340665
     6  H    0.253309
     7  C   -0.310781
     8  H    0.121256
     9  C   -0.496050
    10  H    0.159237
    11  C    1.309644
    12  C   -0.543375
    13  H    0.165410
    14  C   -0.512961
    15  H    0.181368
    16  C    0.627676
    17  C    0.412839
    18  C   -0.338157
    19  C   -0.334981
    20  C    0.418198
    21  C   -0.375515
    22  H    0.160743
    23  C   -0.524675
    24  H    0.197133
    25  C   -0.191272
    26  C   -0.422554
    27  H    0.157819
    28  C   -0.405020
    29  H    0.157232
    30  H    0.157184
    31  H    0.157218
    32  H    0.158584
 Sum of Mulliken charges =   0.00000

 Dipole moment (field-independent basis, Debye):
    X=             -0.6244    Y=             -0.8834    Z=             -0.7496  Tot=              1.3161
 Quadrupole moment (field-independent basis, Debye-Ang):
   XX=           -106.1156   YY=           -114.8716   ZZ=           -118.0778
   XY=            -10.3980   XZ=             -3.9631   YZ=            -14.9809

  Exact polarizability:     248.419     -18.633     204.332      37.113     -51.533     167.851
 Approx polarizability:     301.527       2.613     272.391      23.025     -51.225     215.040

                      1                      2                      3
                      A                      A                      A
 Frequencies --     19.8626                41.2747                55.3764
 Red. masses --      5.5962                 5.7593                 4.0926
 Frc consts  --      0.0013                 0.0058                 0.0074
 IR Inten    --      2.7522                 0.0615                 0.2868

                      4                      5                      6
                      A                      A                      A
 Frequencies --     62.0488               132.1841               143.5076
 Red. masses --      4.8481                 5.3203                 5.4476
 Frc consts  --      0.0110                 0.0548                 0.0661
 IR Inten    --      0.3144                 0.5791                 0.6741

                      7                      8                      9
                      A                      A                      A
 Frequencies --    173.6532               197.2289               216.6886
 Red. masses --      4.2838                 4.1548                 6.9597
 Frc consts  --      0.0761                 0.0952                 0.1925
 IR Inten    --      2.8640                 2.1478                 0.4269

                     10                     11                     12
                      A                      A                      A
 Frequencies --    292.8947               311.6257               388.0403
 Red. masses --      5.1926                 4.2705                 4.9490
 Frc consts  --      0.2625                 0.2443                 0.4391
 IR Inten    --      1.6500                 2.3589                12.0019

                     13                     14                     15
                      A                      A                      A
 Frequencies --    404.6074               413.1603               421.1277
 Red. masses --      2.6473                 3.5986                 4.7916
 Frc consts  --      0.2553                 0.3619                 0.5007
 IR Inten    --      7.0520                 9.8046                 5.1829

                     16                     17                     18
                      A                      A                      A
 Frequencies --    450.0125               469.1704               477.2776
 Red. masses --      3.2413                 1.2320                 3.3132
 Frc consts  --      0.3867                 0.1598                 0.4447
 IR Inten    --     11.3956               119.1662                 2.7080

                     19                     20                     21
                      A                      A                      A
 Frequencies --    497.0303               524.3204               544.3497
 Red. masses --      3.5100                 5.9090                 2.1634
 Frc consts  --      0.5109                 0.9571                 0.3777
 IR Inten    --     15.4188                 7.4771                19.0722

                     22                     23                     24
                      A                      A                      A
 Frequencies --    563.4838               582.0377               589.3124
 Red. masses --      3.4554                 3.2991                 2.2427
 Frc consts  --      0.6464                 0.6585                 0.4589
 IR Inten    --     18.7518                11.7866                 0.2829

                     25                     26                     27
                      A                      A                      A
 Frequencies --    642.1210               668.5917               670.0526
 Red. masses --      5.4850                 4.3194                 5.8638
 Frc consts  --      1.3325                 1.1376                 1.5511
 IR Inten    --      0.1286                21.9308                21.1672

                     28                     29                     30
                      A                      A                      A
 Frequencies --    675.3336               754.6068               758.0628
 Red. masses --      3.5828                 1.7394                 2.8767
 Frc consts  --      0.9628                 0.5836                 0.9740
 IR Inten    --     85.4045                 1.2693                 5.4437

                     31                     32                     33
                      A                      A                      A
 Frequencies --    779.3885               799.3669               805.7488
 Red. masses --      4.2997                 2.2878                 4.3791
 Frc consts  --      1.5388                 0.8613                 1.6751
 IR Inten    --      5.0535                36.1756                 9.0665

                     34                     35                     36
                      A                      A                      A
 Frequencies --    823.9024               851.3040               860.2437
 Red. masses --      1.5553                 3.0744                 1.8253
 Frc consts  --      0.6220                 1.3127                 0.7958
 IR Inten    --     66.5445                 5.5377                 7.8093

                     37                     38                     39
                      A                      A                      A
 Frequencies --    887.5259               894.3784               946.4658
 Red. masses --      1.3981                 1.5575                 1.3987
 Frc consts  --      0.6488                 0.7341                 0.7382
 IR Inten    --      5.6671                 2.0017                 0.2427

                     40                     41                     42
                      A                      A                      A
 Frequencies --    976.6400               986.5917               988.8942
 Red. masses --      4.4983                 1.4142                 1.5365
 Frc consts  --      2.5279                 0.8111                 0.8853
 IR Inten    --      6.2519                36.8489                79.8389

                     43                     44                     45
                      A                      A                      A
 Frequencies --    996.6801              1010.4477              1018.8755
 Red. masses --      1.3390                 1.3352                 1.3276
 Frc consts  --      0.7837                 0.8032                 0.8120
 IR Inten    --      0.3042                 1.2638                 0.0934

                     46                     47                     48
                      A                      A                      A
 Frequencies --   1023.3219              1031.7323              1042.6477
 Red. masses --      1.3238                 1.7601                 2.3168
 Frc consts  --      0.8167                 1.1039                 1.4839
 IR Inten    --      0.1764               167.2303                21.9706

                     49                     50                     51
                      A                      A                      A
 Frequencies --   1053.6882              1087.7366              1131.9550
 Red. masses --      2.5456                 2.1328                 2.5010
 Frc consts  --      1.6652                 1.4868                 1.8881
 IR Inten    --      8.7342                 2.1715                25.2618

                     52                     53                     54
                      A                      A                      A
 Frequencies --   1139.9649              1150.6539              1167.3124
 Red. masses --      1.5292                 1.7623                 1.2932
 Frc consts  --      1.1708                 1.3747                 1.0383
 IR Inten    --     11.5454                32.4440                 0.6829

                     55                     56                     57
                      A                      A                      A
 Frequencies --   1189.7869              1211.9484              1219.8906
 Red. masses --      1.1517                 1.3627                 1.2263
 Frc consts  --      0.9606                 1.1793                 1.0752
 IR Inten    --      1.4447                 1.1666                 1.3306

                     58                     59                     60
                      A                      A                      A
 Frequencies --   1233.6153              1278.7730              1294.3602
 Red. masses --      1.9917                 1.5928                 9.3226
 Frc consts  --      1.7858                 1.5346                 9.2024
 IR Inten    --      1.5499                 1.8169                10.4237

                     61                     62                     63
                      A                      A                      A
 Frequencies --   1323.2997              1332.4688              1373.1314
 Red. masses --      2.2102                 1.3032                 2.8999
 Frc consts  --      2.2803                 1.3633                 3.2215
 IR Inten    --      0.1459                 1.0647                 5.3065

                     64                     65                     66
                      A                      A                      A
 Frequencies --   1388.7334              1411.0332              1418.6966
 Red. masses --      4.1771                 4.2165                 7.1833
 Frc consts  --      4.7464                 4.9462                 8.5183
 IR Inten    --    651.2371               183.7226                 7.9677

                     67                     68                     69
                      A                      A                      A
 Frequencies --   1433.4664              1445.4605              1478.7874
 Red. masses --      2.2686                 3.7509                 2.2934
 Frc consts  --      2.7466                 4.6174                 2.9549
 IR Inten    --      1.0357               162.2827                 5.9709

                     70                     71                     72
                      A                      A                      A
 Frequencies --   1504.7034              1557.3771              1568.7655
 Red. masses --      2.6571                 2.9776                 3.7817
 Frc consts  --      3.5445                 4.2550                 5.4835
 IR Inten    --      0.6863                13.3490                 9.3832

                     73                     74                     75
                      A                      A                      A
 Frequencies --   1621.6395              1656.0747              1668.7841
 Red. masses --      6.5321                 7.5362                 5.5712
 Frc consts  --     10.1207                12.1776                 9.1412
 IR Inten    --     12.6254                 4.4585                 8.2104

                     76                     77                     78
                      A                      A                      A
 Frequencies --   1682.6237              1700.0357              3165.5742
 Red. masses --      6.1511                 6.4752                 1.0885
 Frc consts  --     10.2607                11.0261                 6.4265
 IR Inten    --     67.7661                 0.1653                29.0887

                     79                     80                     81
                      A                      A                      A
 Frequencies --   3195.6740              3197.1671              3197.9565
 Red. masses --      1.0875                 1.0870                 1.0888
 Frc consts  --      6.5433                 6.5463                 6.5605
 IR Inten    --      0.4907                 0.5136                 1.8489

                     82                     83                     84
                      A                      A                      A
 Frequencies --   3203.9617              3207.7383              3208.3838
 Red. masses --      1.0915                 1.0897                 1.0933
 Frc consts  --      6.6016                 6.6063                 6.6306
 IR Inten    --      8.9341                 6.9508                 5.0807

                     85                     86                     87
                      A                      A                      A
 Frequencies --   3215.7160              3221.7143              3222.8492
 Red. masses --      1.0950                 1.0950                 1.0971
 Frc consts  --      6.6715                 6.6962                 6.7142
 IR Inten    --      1.8789                12.1555                12.2221

                     88                     89                     90
                      A                      A                      A
 Frequencies --   3232.0284              3908.4206              3948.3024
 Red. masses --      1.0959                 1.0653                 1.0660
 Frc consts  --      6.7451                 9.5877                 9.7909
 IR Inten    --      5.2991               125.0694                53.0791

 - Thermochemistry -
 -------------------
 Temperature   298.150 Kelvin.  Pressure   1.00000 Atm.
 Atom     1 has atomic number  8 and mass  15.99491

 Molecular mass:   248.10086 amu.
 Principal axes and moments of inertia in atomic units:
                           1         2         3
     Eigenvalues --  1938.941539970.04653**********
           X            0.76549   0.61830  -0.17813
           Y           -0.43945   0.70459   0.55718
           Z            0.47001  -0.34823   0.81106
 This molecule is an asymmetric top.
 Rotational symmetry number  1.
 Warning -- assumption of classical behavior for rotation
           may cause significant error
 Rotational temperatures (Kelvin)      0.04467     0.00869     0.00769
 Rotational constants (GHZ):           0.93079     0.18102     0.16030
 Zero-point vibrational energy     668194.8 (Joules/Mol)
                                  159.70240 (Kcal/Mol)
 Warning -- explicit consideration of  24 degrees of freedom as
           vibrations may cause significant error
 Vibrational temperatures:     28.58    59.39    79.67    89.27   190.18
          (Kelvin)            206.48   249.85   283.77   311.77   421.41
                              448.36   558.30   582.14   594.45   605.91
                              647.47   675.03   686.70   715.12   754.38
                              783.20   810.73   837.42   847.89   923.87
                              961.95   964.06   971.65  1085.71  1090.68
                             1121.37  1150.11  1159.29  1185.41  1224.84
                             1237.70  1276.95  1286.81  1361.75  1405.17
                             1419.49  1422.80  1434.00  1453.81  1465.93
                             1472.33  1484.43  1500.14  1516.02  1565.01
                             1628.63  1640.16  1655.53  1679.50  1711.84
                             1743.72  1755.15  1774.90  1839.87  1862.30
                             1903.93  1917.13  1975.63  1998.08  2030.16
                             2041.19  2062.44  2079.70  2127.65  2164.93
                             2240.72  2257.10  2333.18  2382.72  2401.01
                             2420.92  2445.97  4554.56  4597.86  4600.01
                             4601.15  4609.79  4615.22  4616.15  4626.70
                             4635.33  4636.96  4650.17  5623.35  5680.73

 Zero-point correction=                           0.254502 (Hartree/Particle)
 Thermal correction to Energy=                    0.269631
 Thermal correction to Enthalpy=                  0.270575
 Thermal correction to Gibbs Free Energy=         0.210516
 Sum of electronic and zero-point Energies=           -792.602740
 Sum of electronic and thermal Energies=              -792.587611
 Sum of electronic and thermal Enthalpies=            -792.586667
 Sum of electronic and thermal Free Energies=         -792.646726

                     E (Thermal)             CV                S
                      KCal/Mol        Cal/Mol-Kelvin    Cal/Mol-Kelvin
 Total                  169.196             60.811            126.405
 Electronic               0.000              0.000              0.000
 Translational            0.889              2.981             42.427
 Rotational               0.889              2.981             33.742
 Vibrational            167.419             54.849             50.236
 Vibration     1          0.593              1.986              6.648
 Vibration     2          0.594              1.981              5.197
 Vibration     3          0.596              1.975              4.616
 Vibration     4          0.597              1.972              4.391
 Vibration     5          0.612              1.921              2.914
 Vibration     6          0.616              1.910              2.757
 Vibration     7          0.627              1.875              2.396
 Vibration     8          0.637              1.844              2.159
 Vibration     9          0.646              1.816              1.987
 Vibration    10          0.688              1.687              1.457
 Vibration    11          0.700              1.652              1.354
 Vibration    12          0.756              1.496              1.008
 Vibration    13          0.770              1.460              0.946
 Vibration    14          0.777              1.442              0.916
 Vibration    15          0.784              1.424              0.888
 Vibration    16          0.809              1.361              0.796
 Vibration    17          0.826              1.318              0.740
 Vibration    18          0.834              1.300              0.717
 Vibration    19          0.853              1.257              0.666
 Vibration    20          0.879              1.196              0.600
 Vibration    21          0.899              1.152              0.556
 Vibration    22          0.919              1.110              0.517
 Vibration    23          0.939              1.070              0.482
 Vibration    24          0.947              1.055              0.468

 Optimization completed.
    -- Stationary point found.
 Normal termination of Gaussian 16 at Sat Apr 26 21:04:41 2025.
