 Gaussian 16, Revision C.01,
 Gaussian 16:  AS64L-G16RevC.01  3-Jul-2019

 ----------------------------------------------------------------------
 # opt=(calcfc,tight) freq 6-311+g(d,p) scrf=(smd,solvent=thf) nosymm s
 cf=(qc,fermi,xqc) geom=connectivity int=ultrafine m062x
 ----------------------------------------------------------------------

 ------------------------
 4-br-phboh2-opt-freq-thf
 ------------------------
 Symbolic Z-matrix:
 Charge =  0 Multiplicity = 1

 SCF Done:  E(RM062X) =  -2981.81245981     A.U. after   14 cycles
 SCF Done:  E(RM062X) =  -2981.81254055     A.U. after   11 cycles
 SCF Done:  E(RM062X) =  -2981.81254065     A.U. after    8 cycles
 SCF Done:  E(RM062X) =  -2981.81254065     A.U. after    7 cycles
 SCF Done:  E(RM062X) =  -2981.81254065     A.U. after    6 cycles
 Optimization completed.
    -- Stationary point found.
 Normal termination of Gaussian 16 at Mon Apr 21 12:00:27 2025.

 ----------------------------------------------------------------------
 #N Geom=AllCheck Guess=TCheck SCRF=Check GenChk RM062X/6-311+G(d,p) Fr
 eq
 ----------------------------------------------------------------------

 Structure from the checkpoint file:  "4-br-phboh2-opt-freq-thf.chk"
 ------------------------
 4-br-phboh2-opt-freq-thf
 ------------------------
 Charge =  0 Multiplicity = 1

                          Input orientation:
 ---------------------------------------------------------------------
 Center     Atomic      Atomic             Coordinates (Angstroms)
 Number     Number       Type             X           Y           Z
 ---------------------------------------------------------------------
      1          8           0        8.678122    7.476325    5.577604
      2          1           0        9.496520    7.166437    5.982475
      3          6           0        6.241617    6.997570    5.174887
      4          5           0        7.640159    6.614580    5.778224
      5          8           0        7.883905    5.474902    6.491714
      6          1           0        7.120033    4.903202    6.613724
      7          6           0        5.113879    6.179115    5.301469
      8          1           0        5.166551    5.231059    5.829221
      9          6           0        3.884518    6.541902    4.760923
     10          1           0        3.021595    5.896847    4.868828
     11          6           0        3.788095    7.748839    4.080693
     12          6           0        4.882718    8.590803    3.929663
     13          1           0        4.789313    9.527904    3.395189
     14          6           0        6.099736    8.204699    4.479345
     15          1           0        6.957927    8.857675    4.365314
     16         35           0        2.111232    8.263509    3.337780
 ---------------------------------------------------------------------

 SCF Done:  E(RM062X) =  -2981.81254065     A.U. after    1 cycles

 Alpha  occ. eigenvalues -- -485.33932 -63.33123 -57.15867 -57.15616 -57.15607
 Alpha  occ. eigenvalues --  -19.63866 -19.63285 -10.61116 -10.56004 -10.55900
 Alpha  occ. eigenvalues --  -10.55789 -10.55503 -10.53827  -9.01839  -7.08734
 Alpha  occ. eigenvalues --   -6.84626  -6.83614  -6.83594  -2.87782  -2.87432
 Alpha  occ. eigenvalues --   -2.87409  -2.86513  -2.86513  -1.16888  -1.13214
 Alpha  occ. eigenvalues --   -0.98584  -0.90469  -0.85951  -0.82112  -0.70697
 Alpha  occ. eigenvalues --   -0.68824  -0.65377  -0.63227  -0.58560  -0.53831
 Alpha  occ. eigenvalues --   -0.53160  -0.50603  -0.50044  -0.48437  -0.46144
 Alpha  occ. eigenvalues --   -0.45821  -0.44664  -0.41635  -0.40686  -0.38917
 Alpha  occ. eigenvalues --   -0.38088  -0.35394  -0.32308  -0.30307
 Alpha virt. eigenvalues --   -0.01387  -0.00144   0.00549   0.01427   0.01901
 Alpha virt. eigenvalues --    0.02094   0.03034   0.03836   0.04156   0.05110
 Alpha virt. eigenvalues --    0.05550   0.06893   0.07579   0.08463   0.09161

 Mulliken charges:
               1
     1  O   -0.399282
     2  H    0.330950
     3  C   -0.523541
     4  B    0.508836
     5  O   -0.392299
     6  H    0.282755
     7  C   -0.151385
     8  H    0.180397
     9  C   -0.416657
    10  H    0.205371
    11  C    0.784355
    12  C   -0.405318
    13  H    0.206155
    14  C   -0.243650
    15  H    0.205979
    16  Br  -0.172668
 Sum of Mulliken charges =   0.00000

 Dipole moment (field-independent basis, Debye):
    X=              0.9103    Y=             -1.9130    Z=              1.3509  Tot=              2.5126
 Quadrupole moment (field-independent basis, Debye-Ang):
   XX=            -62.2203   YY=            -92.5678   ZZ=            -59.2179
   XY=             -0.6608   XZ=             10.7411   YZ=             -3.8060

  Exact polarizability:     171.785      -4.684     127.207      29.055     -28.798     100.611
 Approx polarizability:     160.643      -0.781     128.565      22.478     -25.890     101.851

                      1                      2                      3
                      A                      A                      A
 Frequencies --     35.8197                73.5879               130.5185
 Red. masses --      4.5568                 8.0428                 7.3017
 Frc consts  --      0.0034                 0.0257                 0.0733
 IR Inten    --      4.2243                 0.0229                 2.6877

                      4                      5                      6
                      A                      A                      A
 Frequencies --    231.0160               238.6955               267.9373
 Red. masses --      6.1086                12.5971                 5.6690
 Frc consts  --      0.1921                 0.4229                 0.2398
 IR Inten    --      0.1330                 1.8278                 2.9541

                      7                      8                      9
                      A                      A                      A
 Frequencies --    401.2734               410.1022               429.7904
 Red. masses --      2.5028                 4.6634                 5.0166
 Frc consts  --      0.2374                 0.4621                 0.5460
 IR Inten    --     28.4620                32.1539                 7.7208

                     10                     11                     12
                      A                      A                      A
 Frequencies --    448.8181               462.1242               544.3730
 Red. masses --      1.6353                 1.7318                 1.3114
 Frc consts  --      0.1941                 0.2179                 0.2290
 IR Inten    --     68.2926               171.8380                 9.3381

                     13                     14                     15
                      A                      A                      A
 Frequencies --    570.1185               638.6692               648.1621
 Red. masses --      4.2902                 7.0960                 4.4114
 Frc consts  --      0.8216                 1.7054                 1.0919
 IR Inten    --     30.9928                 1.0122               125.3828

                     16                     17                     18
                      A                      A                      A
 Frequencies --    739.5221               757.7173               845.1337
 Red. masses --      4.0496                 6.2908                 1.5110
 Frc consts  --      1.3049                 2.1280                 0.6359
 IR Inten    --     40.8871                36.2977                44.1513

                     19                     20                     21
                      A                      A                      A
 Frequencies --    861.3420               982.8513               987.8915
 Red. masses --      1.2780                 1.3213                 1.4682
 Frc consts  --      0.5587                 0.7520                 0.8442
 IR Inten    --      5.3069                 7.2897               125.6455

                     22                     23                     24
                      A                      A                      A
 Frequencies --   1011.9257              1019.7751              1032.2683
 Red. masses --      1.3829                 3.3724                 1.6201
 Frc consts  --      0.8343                 2.0663                 1.0171
 IR Inten    --      1.3003               167.7523                91.8281

                     25                     26                     27
                      A                      A                      A
 Frequencies --   1101.2772              1129.2513              1141.4882
 Red. masses --      3.7291                 1.8701                 1.5275
 Frc consts  --      2.6647                 1.4051                 1.1727
 IR Inten    --     29.3956                40.3376                86.6360

                     28                     29                     30
                      A                      A                      A
 Frequencies --   1213.5849              1292.7287              1331.7129
 Red. masses --      1.1225                10.5751                 1.2683
 Frc consts  --      0.9740                10.4124                 1.3253
 IR Inten    --      2.6442                31.1627                 2.1155

                     31                     32                     33
                      A                      A                      A
 Frequencies --   1373.0536              1392.7645              1435.5076
 Red. masses --      4.2390                 4.3272                 3.7752
 Frc consts  --      4.7086                 4.9455                 4.5836
 IR Inten    --    700.6648               204.3431               261.9872

                     34                     35                     36
                      A                      A                      A
 Frequencies --   1532.8273              1631.7167              1657.3100
 Red. masses --      2.4848                 6.9581                 5.9494
 Frc consts  --      3.4397                10.9152                 9.6278
 IR Inten    --      3.9801                14.5673               164.8832

                     37                     38                     39
                      A                      A                      A
 Frequencies --   3184.0335              3210.8687              3227.0890
 Red. masses --      1.0901                 1.0897                 1.0962
 Frc consts  --      6.5112                 6.6189                 6.7258
 IR Inten    --     13.9303                 1.5775                 0.0826

                     40                     41                     42
                      A                      A                      A
 Frequencies --   3232.2460              3852.6077              3883.8994
 Red. masses --      1.0946                 1.0652                 1.0661
 Frc consts  --      6.7380                 9.3152                 9.4747
 IR Inten    --      0.1704               199.7636               131.7807

 - Thermochemistry -
 -------------------
 Temperature   298.150 Kelvin.  Pressure   1.00000 Atm.
 Atom     1 has atomic number  8 and mass  15.99491

 Molecular mass:   199.96442 amu.
 Principal axes and moments of inertia in atomic units:
                           1         2         3
     Eigenvalues --   490.077675142.854325632.83840
           X            0.88297   0.40565  -0.23625
           Y           -0.26227   0.84369   0.46840
           Z            0.38933  -0.35162   0.85135
 This molecule is an asymmetric top.
 Rotational symmetry number  1.
 Warning -- assumption of classical behavior for rotation
           may cause significant error
 Rotational temperatures (Kelvin)      0.17674     0.01684     0.01538
 Rotational constants (GHZ):           3.68256     0.35092     0.32040
 Zero-point vibrational energy     302615.7 (Joules/Mol)
                                   72.32690 (Kcal/Mol)
 Warning -- explicit consideration of  13 degrees of freedom as
           vibrations may cause significant error
 Vibrational temperatures:     51.54   105.88   187.79   332.38   343.43
          (Kelvin)            385.50   577.34   590.05   618.37   645.75
                              664.89   783.23   820.27   918.90   932.56
                             1064.01  1090.19  1215.96  1239.28  1414.10
                             1421.36  1455.94  1467.23  1485.20  1584.49
                             1624.74  1642.35  1746.08  1859.95  1916.04
                             1975.52  2003.88  2065.38  2205.40  2347.68
                             2384.50  4581.11  4619.72  4643.06  4650.48
                             5543.04  5588.07

 Zero-point correction=                           0.115260 (Hartree/Particle)
 Thermal correction to Energy=                    0.124589
 Thermal correction to Enthalpy=                  0.125533
 Thermal correction to Gibbs Free Energy=         0.078809
 Sum of electronic and zero-point Energies=          -2981.697280
 Sum of electronic and thermal Energies=             -2981.687952
 Sum of electronic and thermal Enthalpies=           -2981.687008
 Sum of electronic and thermal Free Energies=        -2981.733732

                     E (Thermal)             CV                S
                      KCal/Mol        Cal/Mol-Kelvin    Cal/Mol-Kelvin
 Total                   78.181             34.489             98.340
 Electronic               0.000              0.000              0.000
 Translational            0.889              2.981             41.784
 Rotational               0.889              2.981             31.030
 Vibrational             76.403             28.528             25.526
 Vibration     1          0.594              1.982              5.478
 Vibration     2          0.599              1.966              4.055
 Vibration     3          0.612              1.923              2.938
 Vibration     4          0.653              1.794              1.871
 Vibration     5          0.657              1.781              1.813
 Vibration     6          0.673              1.732              1.609
 Vibration     7          0.767              1.467              0.958
 Vibration     8          0.774              1.448              0.926
 Vibration     9          0.791              1.405              0.859
 Vibration    10          0.808              1.363              0.799
 Vibration    11          0.820              1.334              0.760
 Vibration    12          0.900              1.152              0.556
 Vibration    13          0.926              1.096              0.504

 Optimization completed.
    -- Stationary point found.
 Normal termination of Gaussian 16 at Mon Apr 21 12:01:57 2025.
