 Gaussian 16, Revision C.01,
 Gaussian 16:  AS64L-G16RevC.01  3-Jul-2019

 ----------------------------------------------------------------------
 # opt=(calcfc,tight) freq 6-311+g(d,p) nosymm scf=(qc,fermi,xqc) geom=
 connectivity int=ultrafine m062x
 ----------------------------------------------------------------------

 ---------------------
 4-cf3-phboh2-opt-freq
 ---------------------
 Symbolic Z-matrix:
 Charge =  0 Multiplicity = 1

 SCF Done:  E(RM062X) =  -745.273827825     A.U. after   14 cycles
 SCF Done:  E(RM062X) =  -745.277018507     A.U. after   15 cycles
 SCF Done:  E(RM062X) =  -745.277023663     A.U. after   15 cycles
 SCF Done:  E(RM062X) =  -745.277052928     A.U. after   13 cycles
 SCF Done:  E(RM062X) =  -745.277060009     A.U. after   14 cycles
 SCF Done:  E(RM062X) =  -745.277060432     A.U. after   12 cycles
 SCF Done:  E(RM062X) =  -745.277060435     A.U. after   11 cycles
 SCF Done:  E(RM062X) =  -745.277060475     A.U. after   11 cycles
 SCF Done:  E(RM062X) =  -745.277060476     A.U. after    8 cycles
 SCF Done:  E(RM062X) =  -745.277060476     A.U. after    5 cycles
 Optimization completed.
    -- Stationary point found.
 Normal termination of Gaussian 16 at Mon Apr 21 18:19:23 2025.

 ----------------------------------------------------------------------
 #N Geom=AllCheck Guess=TCheck SCRF=Check GenChk RM062X/6-311+G(d,p) Fr
 eq
 ----------------------------------------------------------------------

 Structure from the checkpoint file:  "4-cf3-phboh2-opt-freq.chk"
 ---------------------
 4-cf3-phboh2-opt-freq
 ---------------------
 Charge =  0 Multiplicity = 1

                          Input orientation:
 ---------------------------------------------------------------------
 Center     Atomic      Atomic             Coordinates (Angstroms)
 Number     Number       Type             X           Y           Z
 ---------------------------------------------------------------------
      1          8           0        8.685784    7.448516    5.521848
      2          1           0        9.504352    7.141898    5.922696
      3          6           0        6.239032    6.996009    5.173822
      4          5           0        7.643134    6.608921    5.764196
      5          8           0        7.880428    5.486223    6.505571
      6          1           0        7.112534    4.936163    6.667298
      7          6           0        5.112462    6.178789    5.307078
      8          1           0        5.174921    5.228195    5.828931
      9          6           0        3.882561    6.550384    4.779083
     10          1           0        3.014365    5.912922    4.892513
     11          6           0        3.772720    7.761950    4.106374
     12          6           0        4.876439    8.594827    3.955067
     13          1           0        4.773740    9.537819    3.431947
     14          6           0        6.098884    8.207996    4.487615
     15          1           0        6.964306    8.850940    4.377231
     16          6           0        2.460956    8.147669    3.484233
     17          9           0        2.296377    9.476646    3.439288
     18          9           0        1.416992    7.637172    4.152540
     19          9           0        2.365398    7.702654    2.219518
 ---------------------------------------------------------------------

 SCF Done:  E(RM062X) =  -745.277060476     A.U. after    1 cycles

 Alpha  occ. eigenvalues --  -25.28081 -25.28048 -25.27620 -19.65229 -19.64409
 Alpha  occ. eigenvalues --  -10.80576 -10.58521 -10.57362 -10.57279 -10.57050
 Alpha  occ. eigenvalues --  -10.56498 -10.55250  -7.09937  -1.47360  -1.38087
 Alpha  occ. eigenvalues --   -1.37616  -1.18265  -1.14580  -0.99473  -0.90047
 Alpha  occ. eigenvalues --   -0.87153  -0.81442  -0.73547  -0.72708  -0.69663
 Alpha  occ. eigenvalues --   -0.68953  -0.67324  -0.66376  -0.64328  -0.58726
 Alpha  occ. eigenvalues --   -0.57942  -0.57553  -0.54859  -0.54499  -0.53556
 Alpha  occ. eigenvalues --   -0.52977  -0.51658  -0.51259  -0.50765  -0.49494
 Alpha  occ. eigenvalues --   -0.46919  -0.46170  -0.45938  -0.42638  -0.41858
 Alpha  occ. eigenvalues --   -0.40391  -0.33744  -0.33298
 Alpha virt. eigenvalues --   -0.03037  -0.01139  -0.00389   0.00875   0.01661
 Alpha virt. eigenvalues --    0.02554   0.03312   0.04007   0.04349   0.05639
 Alpha virt. eigenvalues --    0.06692   0.06903   0.08609   0.09068   0.09281

 Mulliken charges:
               1
     1  O   -0.345592
     2  H    0.306001
     3  C   -0.537199
     4  B    0.470720
     5  O   -0.335307
     6  H    0.254812
     7  C   -0.120308
     8  H    0.128560
     9  C    0.060558
    10  H    0.177430
    11  C   -0.642487
    12  C    0.166882
    13  H    0.179334
    14  C   -0.226162
    15  H    0.188827
    16  C    0.536608
    17  F   -0.102645
    18  F   -0.106482
    19  F   -0.053553
 Sum of Mulliken charges =   0.00000

 Dipole moment (field-independent basis, Debye):
    X=              1.9109    Y=             -1.7086    Z=              1.6840  Tot=              3.0670
 Quadrupole moment (field-independent basis, Debye-Ang):
   XX=            -57.8322   YY=            -93.7279   ZZ=            -59.7066
   XY=              8.7015   XZ=             15.4528   YZ=              0.8016

  Exact polarizability:     121.186      -1.603      94.648      17.454     -19.315      75.809
 Approx polarizability:     138.441       5.342     124.871      12.885     -23.502      95.312

                      1                      2                      3
                      A                      A                      A
 Frequencies --     11.7608                19.2401                65.2706
 Red. masses --      7.5954                 4.7563                 8.3798
 Frc consts  --      0.0006                 0.0010                 0.0210
 IR Inten    --      0.0966                 2.7056                 0.3702

                      4                      5                      6
                      A                      A                      A
 Frequencies --    124.6518               179.3487               220.0519
 Red. masses --      7.8603                 7.9926                 6.9545
 Frc consts  --      0.0720                 0.1515                 0.1984
 IR Inten    --      1.9211                 0.4115                 1.9823

                      7                      8                      9
                      A                      A                      A
 Frequencies --    248.7620               344.5055               389.8215
 Red. masses --      9.9179                 5.7448                 7.5739
 Frc consts  --      0.3616                 0.4017                 0.6781
 IR Inten    --      2.1584                 1.3508                 2.5558

                     10                     11                     12
                      A                      A                      A
 Frequencies --    399.4509               416.4343               441.2195
 Red. masses --      2.6653                 5.2281                 5.5027
 Frc consts  --      0.2506                 0.5342                 0.6312
 IR Inten    --     12.4262                27.9967                 5.2482

                     13                     14                     15
                      A                      A                      A
 Frequencies --    468.7619               486.0834               553.3462
 Red. masses --      1.3143                 3.1723                 1.6243
 Frc consts  --      0.1702                 0.4416                 0.2930
 IR Inten    --    112.9941                37.8357                19.0624

                     16                     17                     18
                      A                      A                      A
 Frequencies --    571.3280               588.0235               607.9064
 Red. masses --      4.3439                12.2006                 3.3164
 Frc consts  --      0.8354                 2.4855                 0.7221
 IR Inten    --     22.2813                 0.0781                 0.2933

                     19                     20                     21
                      A                      A                      A
 Frequencies --    646.2780               671.3214               727.6410
 Red. masses --      7.1478                 3.5436                 8.6077
 Frc consts  --      1.7590                 0.9409                 2.6852
 IR Inten    --      0.1605               128.1557                26.9016

                     22                     23                     24
                      A                      A                      A
 Frequencies --    777.0817               810.2996               859.4763
 Red. masses --      4.3866                 8.5559                 1.5233
 Frc consts  --      1.5607                 3.3098                 0.6630
 IR Inten    --      7.5593                 0.8485                27.2548

                     25                     26                     27
                      A                      A                      A
 Frequencies --    884.1428               984.6046               989.4765
 Red. masses --      1.3524                 1.3976                 1.3634
 Frc consts  --      0.6229                 0.7983                 0.7865
 IR Inten    --     12.6210               111.1018                 2.5577

                     28                     29                     30
                      A                      A                      A
 Frequencies --   1021.4766              1028.9540              1039.3302
 Red. masses --      1.3710                 1.9336                 2.3873
 Frc consts  --      0.8428                 1.2062                 1.5194
 IR Inten    --      0.2820               170.9938                15.4065

                     31                     32                     33
                      A                      A                      A
 Frequencies --   1103.0756              1134.6588              1142.7893
 Red. masses --      5.1612                 1.9509                 1.7001
 Frc consts  --      3.7001                 1.4799                 1.3082
 IR Inten    --     76.9443                26.3750                91.9887

                     34                     35                     36
                      A                      A                      A
 Frequencies --   1198.0886              1220.6133              1225.3268
 Red. masses --     11.0626                 1.1423                 7.9426
 Frc consts  --      9.3559                 1.0028                 7.0261
 IR Inten    --    286.1164                10.8655               215.6153

                     37                     38                     39
                      A                      A                      A
 Frequencies --   1316.3196              1343.0941              1362.1156
 Red. masses --      4.9913                 1.4660                 3.9170
 Frc consts  --      5.0955                 1.5581                 4.2818
 IR Inten    --      0.7807                 8.7118               695.1087

                     40                     41                     42
                      A                      A                      A
 Frequencies --   1395.9187              1416.9388              1456.8428
 Red. masses --      6.1755                 3.8291                 4.6506
 Frc consts  --      7.0900                 4.5294                 5.8155
 IR Inten    --    156.6168                90.2926               257.4164

                     43                     44                     45
                      A                      A                      A
 Frequencies --   1566.9283              1646.4171              1694.2001
 Red. masses --      2.8191                 7.0716                 6.1933
 Frc consts  --      4.0781                11.2940                10.4738
 IR Inten    --     52.6822                 1.7834                 2.0238

                     46                     47                     48
                      A                      A                      A
 Frequencies --   3177.2275              3214.2738              3227.3969
 Red. masses --      1.0894                 1.0888                 1.0944
 Frc consts  --      6.4791                 6.6275                 6.7162
 IR Inten    --     16.7594                 0.1348                 1.1264

                     49                     50                     51
                      A                      A                      A
 Frequencies --   3228.4011              3907.3253              3950.6987
 Red. masses --      1.0952                 1.0653                 1.0661
 Frc consts  --      6.7254                 9.5828                 9.8041
 IR Inten    --      0.0427               120.3872                58.7756

 - Thermochemistry -
 -------------------
 Temperature   298.150 Kelvin.  Pressure   1.00000 Atm.
 Atom     1 has atomic number  8 and mass  15.99491

 Molecular mass:   190.04129 amu.
 Principal axes and moments of inertia in atomic units:
                           1         2         3
     Eigenvalues --   804.423185041.349455530.64765
           X            0.88333   0.40722  -0.23216
           Y           -0.26090   0.83858   0.47825
           Z            0.38944  -0.36188   0.84698
 This molecule is an asymmetric top.
 Rotational symmetry number  1.
 Warning -- assumption of classical behavior for rotation
           may cause significant error
 Rotational temperatures (Kelvin)      0.10767     0.01718     0.01566
 Rotational constants (GHZ):           2.24352     0.35799     0.32632
 Zero-point vibrational energy     343954.5 (Joules/Mol)
                                   82.20710 (Kcal/Mol)
 Warning -- explicit consideration of  18 degrees of freedom as
           vibrations may cause significant error
 Vibrational temperatures:     16.92    27.68    93.91   179.35   258.04
          (Kelvin)            316.61   357.91   495.67   560.87   574.72
                              599.16   634.82   674.44   699.37   796.14
                              822.01   846.03   874.64   929.85   965.88
                             1046.91  1118.05  1165.84  1236.59  1272.08
                             1416.63  1423.64  1469.68  1480.44  1495.36
                             1587.08  1632.52  1644.22  1723.78  1756.19
                             1762.97  1893.89  1932.41  1959.78  2008.42
                             2038.66  2096.07  2254.46  2368.83  2437.58
                             4571.32  4624.62  4643.50  4644.95  5621.77
                             5684.17

 Zero-point correction=                           0.131005 (Hartree/Particle)
 Thermal correction to Energy=                    0.142484
 Thermal correction to Enthalpy=                  0.143428
 Thermal correction to Gibbs Free Energy=         0.090340
 Sum of electronic and zero-point Energies=           -745.146055
 Sum of electronic and thermal Energies=              -745.134577
 Sum of electronic and thermal Enthalpies=            -745.133633
 Sum of electronic and thermal Free Energies=         -745.186721

                     E (Thermal)             CV                S
                      KCal/Mol        Cal/Mol-Kelvin    Cal/Mol-Kelvin
 Total                   89.410             42.546            111.733
 Electronic               0.000              0.000              0.000
 Translational            0.889              2.981             41.632
 Rotational               0.889              2.981             31.484
 Vibrational             87.632             36.584             38.617
 Vibration     1          0.593              1.987              7.689
 Vibration     2          0.593              1.986              6.711
 Vibration     3          0.597              1.971              4.291
 Vibration     4          0.610              1.928              3.027
 Vibration     5          0.629              1.868              2.335
 Vibration     6          0.647              1.811              1.959
 Vibration     7          0.662              1.765              1.739
 Vibration     8          0.723              1.586              1.191
 Vibration     9          0.758              1.492              1.001
 Vibration    10          0.766              1.471              0.965
 Vibration    11          0.780              1.435              0.904
 Vibration    12          0.801              1.380              0.823
 Vibration    13          0.826              1.319              0.741
 Vibration    14          0.842              1.281              0.694
 Vibration    15          0.909              1.132              0.537
 Vibration    16          0.927              1.093              0.502
 Vibration    17          0.945              1.057              0.471
 Vibration    18          0.967              1.015              0.436

 Optimization completed.
    -- Stationary point found.
 Normal termination of Gaussian 16 at Mon Apr 21 18:21:31 2025.
