 Gaussian 16, Revision C.01,
 Gaussian 16:  AS64L-G16RevC.01  3-Jul-2019

 ----------------------------------------------------------------------
 # opt=(calcfc,tight) freq 6-311+g(d,p) scrf=(smd,solvent=thf) nosymm s
 cf=(qc,fermi,xqc) geom=connectivity int=ultrafine m062x
 ----------------------------------------------------------------------

 -----------------------
 4-cl-phboh2-optfreq-thf
 -----------------------
 Symbolic Z-matrix:
 Charge =  0 Multiplicity = 1

 SCF Done:  E(RM062X) =  -867.840122549     A.U. after   14 cycles
 SCF Done:  E(RM062X) =  -867.840205728     A.U. after   12 cycles
 SCF Done:  E(RM062X) =  -867.840205768     A.U. after    8 cycles
 SCF Done:  E(RM062X) =  -867.840205769     A.U. after    7 cycles
 SCF Done:  E(RM062X) =  -867.840205769     A.U. after    5 cycles
 Optimization completed.
    -- Stationary point found.
 Normal termination of Gaussian 16 at Mon Apr 21 11:57:42 2025.

 ----------------------------------------------------------------------
 #N Geom=AllCheck Guess=TCheck SCRF=Check GenChk RM062X/6-311+G(d,p) Fr
 eq
 ----------------------------------------------------------------------

 Structure from the checkpoint file:  "4-cl-phboh2-opt-freq-thf.chk"
 -----------------------
 4-cl-phboh2-optfreq-thf
 -----------------------
 Charge =  0 Multiplicity = 1

                          Input orientation:
 ---------------------------------------------------------------------
 Center     Atomic      Atomic             Coordinates (Angstroms)
 Number     Number       Type             X           Y           Z
 ---------------------------------------------------------------------
      1          8           0        8.682769    7.468077    5.565078
      2          1           0        9.500342    7.156779    5.970509
      3          6           0        6.241851    6.998793    5.175455
      4          5           0        7.640249    6.614263    5.776735
      5          8           0        7.880517    5.479218    6.499070
      6          1           0        7.113009    4.914901    6.631925
      7          6           0        5.115336    6.177837    5.299156
      8          1           0        5.170100    5.228299    5.823951
      9          6           0        3.886714    6.540016    4.757971
     10          1           0        3.020968    5.897320    4.858162
     11          6           0        3.789517    7.748223    4.081286
     12          6           0        4.881600    8.593400    3.934342
     13          1           0        4.780168    9.531073    3.401784
     14          6           0        6.098672    8.208020    4.483317
     15          1           0        6.956301    8.862079    4.371876
     16         17           0        2.249854    8.216593    3.394960
 ---------------------------------------------------------------------

 SCF Done:  E(RM062X) =  -867.840205769     A.U. after    1 cycles

 Alpha  occ. eigenvalues -- -102.68132 -19.63834 -19.63256 -10.61482 -10.55956
 Alpha  occ. eigenvalues --  -10.55766 -10.55658 -10.55465 -10.53744  -9.82402
 Alpha  occ. eigenvalues --   -7.54902  -7.54251  -7.54235  -7.08690  -1.16857
 Alpha  occ. eigenvalues --   -1.13181  -1.00312  -0.94127  -0.85933  -0.83248
 Alpha  occ. eigenvalues --   -0.70803  -0.69004  -0.65348  -0.63210  -0.58910
 Alpha  occ. eigenvalues --   -0.54304  -0.53455  -0.51010  -0.50100  -0.48567
 Alpha  occ. eigenvalues --   -0.46911  -0.46082  -0.45784  -0.41949  -0.40694
 Alpha  occ. eigenvalues --   -0.40427  -0.39222  -0.38300  -0.32275  -0.30730
 Alpha virt. eigenvalues --   -0.01188  -0.00043   0.00623   0.01955   0.02047
 Alpha virt. eigenvalues --    0.03100   0.03432   0.04473   0.04738   0.06419
 Alpha virt. eigenvalues --    0.06646   0.08033   0.09036   0.09250   0.09312

 Mulliken charges:
               1
     1  O   -0.395328
     2  H    0.329786
     3  C   -0.618323
     4  B    0.502285
     5  O   -0.388553
     6  H    0.282501
     7  C   -0.346359
     8  H    0.180293
     9  C   -0.470102
    10  H    0.211801
    11  C    0.897662
    12  C   -0.453516
    13  H    0.212413
    14  C   -0.428556
    15  H    0.205262
    16  Cl   0.278733
 Sum of Mulliken charges =   0.00000

 Dipole moment (field-independent basis, Debye):
    X=              0.8499    Y=             -1.8831    Z=              1.3498  Tot=              2.4679
 Quadrupole moment (field-independent basis, Debye-Ang):
   XX=            -57.4957   YY=            -86.2129   ZZ=            -53.3429
   XY=             -0.7511   XZ=             10.2216   YZ=             -3.5853

  Exact polarizability:     161.110      -2.434     122.564      26.334     -28.236      94.685
 Approx polarizability:     147.719       0.893     120.549      20.177     -25.074      93.278

                      1                      2                      3
                      A                      A                      A
 Frequencies --     40.6607                80.6903               142.4994
 Red. masses --      4.6132                 8.6678                 7.0984
 Frc consts  --      0.0045                 0.0333                 0.0849
 IR Inten    --      3.8828                 0.0286                 3.3133

                      4                      5                      6
                      A                      A                      A
 Frequencies --    242.5144               285.1122               300.4609
 Red. masses --      6.1771                 9.5968                 6.4847
 Frc consts  --      0.2140                 0.4596                 0.3449
 IR Inten    --      0.4271                 3.3878                 2.8017

                      7                      8                      9
                      A                      A                      A
 Frequencies --    406.6205               432.6371               454.1241
 Red. masses --      2.4172                 4.8445                 4.6172
 Frc consts  --      0.2355                 0.5343                 0.5610
 IR Inten    --     25.1811                 6.1216                56.4767

                     10                     11                     12
                      A                      A                      A
 Frequencies --    458.1999               470.0329               547.5552
 Red. masses --      1.5465                 1.8191                 1.3271
 Frc consts  --      0.1913                 0.2368                 0.2344
 IR Inten    --     96.4123               146.7269                 5.3904

                     13                     14                     15
                      A                      A                      A
 Frequencies --    595.4352               639.9755               651.6485
 Red. masses --      4.7810                 7.1266                 4.3045
 Frc consts  --      0.9987                 1.7197                 1.0769
 IR Inten    --     23.5760                 1.0086               136.8046

                     16                     17                     18
                      A                      A                      A
 Frequencies --    753.1652               770.1605               847.8048
 Red. masses --      4.0911                 6.4864                 1.4709
 Frc consts  --      1.3673                 2.2668                 0.6229
 IR Inten    --     28.2093                41.1880                43.7782

                     19                     20                     21
                      A                      A                      A
 Frequencies --    863.7267               985.2934               989.1471
 Red. masses --      1.3210                 1.3432                 1.4707
 Frc consts  --      0.5806                 0.7683                 0.8478
 IR Inten    --     15.7118                 5.9922               130.2090

                     22                     23                     24
                      A                      A                      A
 Frequencies --   1013.4149              1023.1968              1033.8055
 Red. masses --      1.3776                 2.7380                 1.7256
 Frc consts  --      0.8336                 1.6889                 1.0866
 IR Inten    --      0.7666               184.1641                64.2521

                     25                     26                     27
                      A                      A                      A
 Frequencies --   1114.5967              1128.2867              1139.5288
 Red. masses --      4.3948                 1.7265                 1.5558
 Frc consts  --      3.2168                 1.2949                 1.1903
 IR Inten    --     48.1339                33.2997                99.7765

                     28                     29                     30
                      A                      A                      A
 Frequencies --   1209.7285              1294.4084              1330.2268
 Red. masses --      1.1337                10.5317                 1.2703
 Frc consts  --      0.9775                10.3966                 1.3244
 IR Inten    --      2.8264                30.0098                 4.4103

                     31                     32                     33
                      A                      A                      A
 Frequencies --   1373.0128              1393.5264              1437.6671
 Red. masses --      4.2305                 4.6451                 3.7638
 Frc consts  --      4.6988                 5.3147                 4.5835
 IR Inten    --    719.6954               232.5993               226.8864

                     34                     35                     36
                      A                      A                      A
 Frequencies --   1536.5425              1634.9952              1661.2088
 Red. masses --      2.5350                 6.9738                 6.0304
 Frc consts  --      3.5263                10.9838                 9.8049
 IR Inten    --      5.7602                16.9174               162.2410

                     37                     38                     39
                      A                      A                      A
 Frequencies --   3184.7508              3211.7979              3228.2967
 Red. masses --      1.0900                 1.0897                 1.0959
 Frc consts  --      6.5139                 6.6229                 6.7295
 IR Inten    --     13.6588                 1.4957                 0.1632

                     40                     41                     42
                      A                      A                      A
 Frequencies --   3231.4615              3852.7066              3883.9688
 Red. masses --      1.0949                 1.0652                 1.0661
 Frc consts  --      6.7363                 9.3156                 9.4750
 IR Inten    --      0.0288               198.0273               131.8096

 - Thermochemistry -
 -------------------
 Temperature   298.150 Kelvin.  Pressure   1.00000 Atm.
 Atom     1 has atomic number  8 and mass  15.99491

 Molecular mass:   156.01494 amu.
 Principal axes and moments of inertia in atomic units:
                           1         2         3
     Eigenvalues --   489.968533450.166303939.88275
           X            0.88358   0.40432  -0.23626
           Y           -0.26033   0.84347   0.46988
           Z            0.38926  -0.35367   0.85053
 This molecule is an asymmetric top.
 Rotational symmetry number  1.
 Warning -- assumption of classical behavior for rotation
           may cause significant error
 Rotational temperatures (Kelvin)      0.17677     0.02510     0.02198
 Rotational constants (GHZ):           3.68338     0.52309     0.45807
 Zero-point vibrational energy     304297.6 (Joules/Mol)
                                   72.72888 (Kcal/Mol)
 Warning -- explicit consideration of  13 degrees of freedom as
           vibrations may cause significant error
 Vibrational temperatures:     58.50   116.10   205.02   348.92   410.21
          (Kelvin)            432.30   585.04   622.47   653.38   659.25
                              676.27   787.81   856.70   920.78   937.58
                             1083.64  1108.09  1219.80  1242.71  1417.62
                             1423.16  1458.08  1472.15  1487.42  1603.66
                             1623.35  1639.53  1740.53  1862.37  1913.90
                             1975.46  2004.97  2068.48  2210.74  2352.39
                             2390.11  4582.15  4621.06  4644.80  4649.35
                             5543.19  5588.16

 Zero-point correction=                           0.115901 (Hartree/Particle)
 Thermal correction to Energy=                    0.124968
 Thermal correction to Enthalpy=                  0.125913
 Thermal correction to Gibbs Free Energy=         0.080614
 Sum of electronic and zero-point Energies=           -867.724305
 Sum of electronic and thermal Energies=              -867.715237
 Sum of electronic and thermal Enthalpies=            -867.714293
 Sum of electronic and thermal Free Energies=         -867.759592

                     E (Thermal)             CV                S
                      KCal/Mol        Cal/Mol-Kelvin    Cal/Mol-Kelvin
 Total                   78.419             34.016             95.339
 Electronic               0.000              0.000              0.000
 Translational            0.889              2.981             41.044
 Rotational               0.889              2.981             30.278
 Vibrational             76.641             28.054             24.017
 Vibration     1          0.594              1.981              5.227
 Vibration     2          0.600              1.962              3.874
 Vibration     3          0.616              1.911              2.770
 Vibration     4          0.659              1.775              1.784
 Vibration     5          0.683              1.701              1.503
 Vibration     6          0.693              1.673              1.414
 Vibration     7          0.771              1.456              0.939
 Vibration     8          0.794              1.399              0.850
 Vibration     9          0.813              1.352              0.783
 Vibration    10          0.816              1.343              0.771
 Vibration    11          0.827              1.317              0.737
 Vibration    12          0.903              1.145              0.549
 Vibration    13          0.953              1.041              0.458

 Optimization completed.
    -- Stationary point found.
 Normal termination of Gaussian 16 at Mon Apr 21 11:59:07 2025.
