 Gaussian 16, Revision C.01,
 Gaussian 16:  AS64L-G16RevC.01  3-Jul-2019

 ----------------------------------------------------------------------
 # opt=(calcfc,tight) freq 6-311+g(d,p) scrf=(smd,solvent=thf) nosymm s
 cf=(qc,fermi,xqc) geom=connectivity int=ultrafine m062x
 ----------------------------------------------------------------------

 -------------------------
 4-cl-ph-anion-optfreq-thf
 -------------------------
 Symbolic Z-matrix:
 Charge = -1 Multiplicity = 1

 SCF Done:  E(RM062X) =  -691.236410516     A.U. after   17 cycles
 SCF Done:  E(RM062X) =  -691.249861973     A.U. after   14 cycles
 SCF Done:  E(RM062X) =  -691.250240210     A.U. after   12 cycles
 SCF Done:  E(RM062X) =  -691.250242190     A.U. after   10 cycles
 SCF Done:  E(RM062X) =  -691.250242208     A.U. after    8 cycles
 SCF Done:  E(RM062X) =  -691.250242209     A.U. after    7 cycles
 Optimization completed.
    -- Stationary point found.
 Normal termination of Gaussian 16 at Tue May 27 04:23:28 2025.

 ----------------------------------------------------------------------
 #N Geom=AllCheck Guess=TCheck SCRF=Check GenChk RM062X/6-311+G(d,p) Fr
 eq
 ----------------------------------------------------------------------

 Structure from the checkpoint file:  "4-cl-ph-anion-opt-freq-thf.chk"
 -------------------------
 4-cl-ph-anion-optfreq-thf
 -------------------------
 Charge = -1 Multiplicity = 1

                          Input orientation:
 ---------------------------------------------------------------------
 Center     Atomic      Atomic             Coordinates (Angstroms)
 Number     Number       Type             X           Y           Z
 ---------------------------------------------------------------------
      1          6           0        6.304715    6.974766    5.203471
      2          6           0        5.129604    6.193496    5.293689
      3          1           0        5.159150    5.236369    5.815991
      4          6           0        3.885829    6.546669    4.754630
      5          1           0        3.019083    5.901470    4.858277
      6          6           0        3.780512    7.751174    4.076599
      7          6           0        4.877866    8.586552    3.937368
      8          1           0        4.783150    9.527206    3.403804
      9          6           0        6.096545    8.182294    4.497803
     10          1           0        6.928462    8.874047    4.359555
     11         17           0        2.226165    8.227611    3.381071
 ---------------------------------------------------------------------

 SCF Done:  E(RM062X) =  -691.250242209     A.U. after    1 cycles

 Alpha  occ. eigenvalues -- -102.65241 -10.56855 -10.51422 -10.51417 -10.49812
 Alpha  occ. eigenvalues --  -10.49811 -10.45374  -9.79504  -7.51986  -7.51364
 Alpha  occ. eigenvalues --   -7.51363  -0.95965  -0.88861  -0.80562  -0.76764
 Alpha  occ. eigenvalues --   -0.64942  -0.62339  -0.53756  -0.48345  -0.47899
 Alpha  occ. eigenvalues --   -0.45009  -0.43392  -0.41927  -0.36647  -0.36335
 Alpha  occ. eigenvalues --   -0.34383  -0.27542  -0.25182  -0.20149
 Alpha virt. eigenvalues --    0.03472   0.04736   0.04882   0.05181   0.05391
 Alpha virt. eigenvalues --    0.07745   0.07862   0.08304   0.08656   0.09903
 Alpha virt. eigenvalues --    0.11155   0.11255   0.11423   0.12492   0.15074

 Mulliken charges:
               1
     1  C   -0.933112
     2  C   -0.276508
     3  H    0.156264
     4  C   -0.432968
     5  H    0.185238
     6  C    0.510286
     7  C   -0.430970
     8  H    0.185238
     9  C   -0.274530
    10  H    0.156356
    11  Cl   0.154707
 Sum of Mulliken charges =  -1.00000

 Dipole moment (field-independent basis, Debye):
    X=            -28.0491    Y=            -34.1884    Z=            -23.9966  Tot=             50.3134
 Quadrupole moment (field-independent basis, Debye-Ang):
   XX=           -231.3647   YY=           -294.9210   ZZ=           -177.3330
   XY=           -193.0005   XZ=           -147.0466   YZ=           -171.1546

  Exact polarizability:     157.538      -4.049     120.533      24.985     -24.780      96.755
 Approx polarizability:     134.698       0.460     112.424      17.414     -21.587      88.498

                      1                      2                      3
                      A                      A                      A
 Frequencies --    181.6331               294.7240               374.2177
 Red. masses --      8.1675                 6.0790                 2.6732
 Frc consts  --      0.1588                 0.3111                 0.2206
 IR Inten    --     21.0769                 5.1122                 0.0067

                      4                      5                      6
                      A                      A                      A
 Frequencies --    409.4882               467.5290               635.7568
 Red. masses --     13.2093                 3.7145                 7.1009
 Frc consts  --      1.3050                 0.4784                 1.6910
 IR Inten    --      2.1596                42.0596                 0.0533

                      7                      8                      9
                      A                      A                      A
 Frequencies --    690.7986               711.9590               807.4488
 Red. masses --      7.8056                 3.3969                 1.4308
 Frc consts  --      2.1946                 1.0145                 0.5496
 IR Inten    --     56.4538                 1.3139                59.8045

                     10                     11                     12
                      A                      A                      A
 Frequencies --    856.6430               972.1092               984.8881
 Red. masses --      1.2546                 1.2842                 7.3068
 Frc consts  --      0.5424                 0.7150                 4.1759
 IR Inten    --      0.0099                 3.2970                20.4599

                     13                     14                     15
                      A                      A                      A
 Frequencies --    995.8308              1027.0887              1093.6741
 Red. masses --      1.4262                 4.0559                 1.5454
 Frc consts  --      0.8333                 2.5209                 1.0891
 IR Inten    --      0.0468                64.5575                 2.2428

                     16                     17                     18
                      A                      A                      A
 Frequencies --   1113.3410              1202.3519              1240.0548
 Red. masses --      2.1845                 1.1880                 9.4396
 Frc consts  --      1.5953                 1.0119                 8.5524
 IR Inten    --     31.6299                 0.5787                30.0554

                     19                     20                     21
                      A                      A                      A
 Frequencies --   1327.5157              1381.6983              1484.5807
 Red. masses --      1.2561                 2.2921                 2.0177
 Frc consts  --      1.3042                 2.5781                 2.6201
 IR Inten    --      0.2387                 6.0599                15.2140

                     22                     23                     24
                      A                      A                      A
 Frequencies --   1578.8078              1602.5007              3112.6792
 Red. masses --      5.4625                 6.7442                 1.0869
 Frc consts  --      8.0223                10.2042                 6.2043
 IR Inten    --     43.2763                12.8071                75.0973

                     25                     26                     27
                      A                      A                      A
 Frequencies --   3115.5043              3191.0674              3194.4319
 Red. masses --      1.0869                 1.0932                 1.0932
 Frc consts  --      6.2158                 6.5586                 6.5727
 IR Inten    --     55.2085                17.1658                17.4567

 - Thermochemistry -
 -------------------
 Temperature   298.150 Kelvin.  Pressure   1.00000 Atm.
 Atom     1 has atomic number  6 and mass  12.00000

 Molecular mass:   111.00015 amu.
 Principal axes and moments of inertia in atomic units:
                           1         2         3
     Eigenvalues --   309.234801140.412181449.64649
           X            0.87906   0.41129  -0.24103
           Y           -0.26988   0.84615   0.45956
           Z            0.39296  -0.33893   0.85482
 This molecule is an asymmetric top.
 Rotational symmetry number  1.
 Rotational temperatures (Kelvin)      0.28009     0.07595     0.05975
 Rotational constants (GHZ):           5.83615     1.58253     1.24495
 Zero-point vibrational energy     203654.2 (Joules/Mol)
                                   48.67452 (Kcal/Mol)
 Warning -- explicit consideration of   5 degrees of freedom as
           vibrations may cause significant error
 Vibrational temperatures:    261.33   424.04   538.42   589.16   672.67
          (Kelvin)            914.71   993.91  1024.35  1161.74  1232.52
                             1398.65  1417.03  1432.78  1477.75  1573.55
                             1601.85  1729.92  1784.16  1910.00  1987.96
                             2135.98  2271.55  2305.64  4478.45  4482.52
                             4591.23  4596.08

 Zero-point correction=                           0.077568 (Hartree/Particle)
 Thermal correction to Energy=                    0.083068
 Thermal correction to Enthalpy=                  0.084012
 Thermal correction to Gibbs Free Energy=         0.047773
 Sum of electronic and zero-point Energies=           -691.172674
 Sum of electronic and thermal Energies=              -691.167174
 Sum of electronic and thermal Enthalpies=            -691.166230
 Sum of electronic and thermal Free Energies=         -691.202469

                     E (Thermal)             CV                S
                      KCal/Mol        Cal/Mol-Kelvin    Cal/Mol-Kelvin
 Total                   52.126             20.524             76.273
 Electronic               0.000              0.000              0.000
 Translational            0.889              2.981             40.029
 Rotational               0.889              2.981             27.727
 Vibrational             50.349             14.563              8.517
 Vibration     1          0.630              1.865              2.312
 Vibration     2          0.689              1.684              1.447
 Vibration     3          0.745              1.525              1.062
 Vibration     4          0.774              1.450              0.928
 Vibration     5          0.825              1.322              0.745

 Optimization completed.
    -- Stationary point found.
 Normal termination of Gaussian 16 at Tue May 27 04:24:05 2025.
