 Gaussian 16, Revision C.01,
 Gaussian 16:  AS64L-G16RevC.01  3-Jul-2019

 ----------------------------------------------------------------------
 # opt=(calcfc,tight) freq 6-311+g(d,p) nosymm scf=(qc,fermi,xqc) geom=
 connectivity int=ultrafine m062x
 ----------------------------------------------------------------------

 -------------------
 4-cl-phboh2-optfreq
 -------------------
 Symbolic Z-matrix:
 Charge =  0 Multiplicity = 1

 SCF Done:  E(RM062X) =  -867.825853044     A.U. after   15 cycles
 SCF Done:  E(RM062X) =  -867.826080648     A.U. after   13 cycles
 SCF Done:  E(RM062X) =  -867.826080840     A.U. after    9 cycles
 SCF Done:  E(RM062X) =  -867.826080840     A.U. after    7 cycles
 Optimization completed.
    -- Stationary point found.
 Normal termination of Gaussian 16 at Sat Apr 19 13:10:51 2025.

 ----------------------------------------------------------------------
 #N Geom=AllCheck Guess=TCheck SCRF=Check GenChk RM062X/6-311+G(d,p) Fr
 eq
 ----------------------------------------------------------------------

 Structure from the checkpoint file:  "4-cl-phboh2-opt-freq.chk"
 -------------------
 4-cl-phboh2-optfreq
 -------------------
 Charge =  0 Multiplicity = 1

                          Input orientation:
 ---------------------------------------------------------------------
 Center     Atomic      Atomic             Coordinates (Angstroms)
 Number     Number       Type             X           Y           Z
 ---------------------------------------------------------------------
      1          8           0        8.685162    7.456214    5.541765
      2          1           0        9.498228    7.148086    5.952188
      3          6           0        6.242555    6.995843    5.173404
      4          5           0        7.639566    6.614580    5.772452
      5          8           0        7.877080    5.490758    6.515262
      6          1           0        7.107787    4.941274    6.671834
      7          6           0        5.117302    6.174045    5.288723
      8          1           0        5.177127    5.219196    5.803826
      9          6           0        3.888928    6.537127    4.750260
     10          1           0        3.021935    5.895810    4.842289
     11          6           0        3.786616    7.749593    4.081337
     12          6           0        4.880982    8.593882    3.942844
     13          1           0        4.773806    9.533066    3.415249
     14          6           0        6.098326    8.208410    4.488648
     15          1           0        6.959981    8.858073    4.385320
     16         17           0        2.252585    8.218936    3.400178
 ---------------------------------------------------------------------

 SCF Done:  E(RM062X) =  -867.826080840     A.U. after    1 cycles

 Alpha  occ. eigenvalues -- -102.68060 -19.64647 -19.63819 -10.61803 -10.56815
 Alpha  occ. eigenvalues --  -10.56419 -10.56169 -10.55974 -10.54221  -9.82330
 Alpha  occ. eigenvalues --   -7.54837  -7.54172  -7.54158  -7.09269  -1.17674
 Alpha  occ. eigenvalues --   -1.13972  -1.00660  -0.94464  -0.86546  -0.83658
 Alpha  occ. eigenvalues --   -0.71513  -0.69577  -0.66194  -0.64037  -0.59551
 Alpha  occ. eigenvalues --   -0.54873  -0.54266  -0.51626  -0.50867  -0.49100
 Alpha  occ. eigenvalues --   -0.47267  -0.46643  -0.46368  -0.42623  -0.41309
 Alpha  occ. eigenvalues --   -0.40552  -0.39902  -0.38281  -0.32740  -0.30912
 Alpha virt. eigenvalues --   -0.01604  -0.00850   0.00165   0.01209   0.01769
 Alpha virt. eigenvalues --    0.02905   0.03353   0.03747   0.04453   0.06132
 Alpha virt. eigenvalues --    0.06735   0.07606   0.08643   0.08915   0.08990

 Mulliken charges:
               1
     1  O   -0.364136
     2  H    0.307715
     3  C   -0.607052
     4  B    0.468804
     5  O   -0.352976
     6  H    0.252394
     7  C   -0.286429
     8  H    0.129047
     9  C   -0.456421
    10  H    0.180730
    11  C    0.864735
    12  C   -0.427654
    13  H    0.182822
    14  C   -0.394220
    15  H    0.188343
    16  Cl   0.314299
 Sum of Mulliken charges =   0.00000

 Dipole moment (field-independent basis, Debye):
    X=              0.6702    Y=             -1.3726    Z=              1.0607  Tot=              1.8596
 Quadrupole moment (field-independent basis, Debye-Ang):
   XX=            -58.4190   YY=            -79.9646   ZZ=            -55.9811
   XY=              0.2356   XZ=              8.3554   YZ=             -2.5901

  Exact polarizability:     129.178      -4.962      92.098      23.140     -21.006      73.867
 Approx polarizability:     148.606       0.839     120.775      20.661     -25.483      92.683

                      1                      2                      3
                      A                      A                      A
 Frequencies --     27.3046                79.0080               142.3163
 Red. masses --      4.5601                 8.3837                 7.0533
 Frc consts  --      0.0020                 0.0308                 0.0842
 IR Inten    --      2.8212                 0.0773                 2.3013

                      4                      5                      6
                      A                      A                      A
 Frequencies --    241.3439               284.8676               299.4402
 Red. masses --      6.1764                 9.3108                 6.4138
 Frc consts  --      0.2120                 0.4452                 0.3388
 IR Inten    --      0.3816                 2.7826                 2.0650

                      7                      8                      9
                      A                      A                      A
 Frequencies --    403.1809               433.2668               455.4294
 Red. masses --      2.4295                 4.7680                 5.1712
 Frc consts  --      0.2327                 0.5274                 0.6319
 IR Inten    --     14.3463                 4.0815                38.4302

                     10                     11                     12
                      A                      A                      A
 Frequencies --    461.8888               476.5438               560.3807
 Red. masses --      1.9979                 1.4455                 1.3188
 Frc consts  --      0.2511                 0.1934                 0.2440
 IR Inten    --     14.3278               148.6532                 8.0056

                     13                     14                     15
                      A                      A                      A
 Frequencies --    598.8667               642.5184               664.3131
 Red. masses --      4.7877                 7.1068                 3.9516
 Frc consts  --      1.0117                 1.7286                 1.0275
 IR Inten    --     17.2901                 0.9382               104.2840

                     16                     17                     18
                      A                      A                      A
 Frequencies --    754.3710               774.1342               843.0060
 Red. masses --      4.1226                 6.4422                 1.4766
 Frc consts  --      1.3823                 2.2747                 0.6183
 IR Inten    --     25.6570                26.1440                23.6635

                     19                     20                     21
                      A                      A                      A
 Frequencies --    866.9300               976.1616               984.7802
 Red. masses --      1.3241                 1.3485                 1.4226
 Frc consts  --      0.5863                 0.7571                 0.8129
 IR Inten    --     10.1709                 0.9240               106.7750

                     22                     23                     24
                      A                      A                      A
 Frequencies --   1013.6688              1027.1094              1036.8226
 Red. masses --      1.3625                 2.3653                 1.9420
 Frc consts  --      0.8249                 1.4702                 1.2300
 IR Inten    --      0.2861               154.7596                36.8011

                     25                     26                     27
                      A                      A                      A
 Frequencies --   1122.5429              1131.4652              1139.7993
 Red. masses --      4.4285                 1.6518                 1.6466
 Frc consts  --      3.2878                 1.2459                 1.2604
 IR Inten    --     36.9788                17.8469                72.5194

                     28                     29                     30
                      A                      A                      A
 Frequencies --   1213.4308              1296.1993              1327.9888
 Red. masses --      1.1391                10.7427                 1.2666
 Frc consts  --      0.9882                10.6342                 1.3161
 IR Inten    --      0.7384                13.3300                 1.2081

                     31                     32                     33
                      A                      A                      A
 Frequencies --   1388.8109              1409.4937              1448.0051
 Red. masses --      4.1559                 3.8737                 4.5888
 Frc consts  --      4.7228                 4.5342                 5.6688
 IR Inten    --    546.5076               126.2680               214.2515

                     34                     35                     36
                      A                      A                      A
 Frequencies --   1540.4449              1635.8306              1667.0506
 Red. masses --      2.6127                 7.0791                 6.0319
 Frc consts  --      3.6528                11.1611                 9.8764
 IR Inten    --      2.3434                11.6178               115.6710

                     37                     38                     39
                      A                      A                      A
 Frequencies --   3173.6221              3213.3660              3230.9317
 Red. masses --      1.0893                 1.0893                 1.0954
 Frc consts  --      6.4641                 6.6270                 6.7372
 IR Inten    --     18.8662                 0.3610                 0.7432

                     40                     41                     42
                      A                      A                      A
 Frequencies --   3233.4756              3909.0502              3951.0474
 Red. masses --      1.0943                 1.0653                 1.0661
 Frc consts  --      6.7411                 9.5911                 9.8054
 IR Inten    --      0.4513               118.5266                56.4975

 - Thermochemistry -
 -------------------
 Temperature   298.150 Kelvin.  Pressure   1.00000 Atm.
 Atom     1 has atomic number  8 and mass  15.99491

 Molecular mass:   156.01494 amu.
 Principal axes and moments of inertia in atomic units:
                           1         2         3
     Eigenvalues --   488.703673445.626783933.50650
           X            0.88383   0.40494  -0.23425
           Y           -0.26077   0.84218   0.47195
           Z            0.38839  -0.35604   0.84994
 This molecule is an asymmetric top.
 Rotational symmetry number  1.
 Warning -- assumption of classical behavior for rotation
           may cause significant error
 Rotational temperatures (Kelvin)      0.17723     0.02514     0.02202
 Rotational constants (GHZ):           3.69292     0.52378     0.45881
 Zero-point vibrational energy     305527.5 (Joules/Mol)
                                   73.02282 (Kcal/Mol)
 Warning -- explicit consideration of  13 degrees of freedom as
           vibrations may cause significant error
 Vibrational temperatures:     39.29   113.67   204.76   347.24   409.86
          (Kelvin)            430.83   580.09   623.37   655.26   664.55
                              685.64   806.26   861.64   924.44   955.80
                             1085.37  1113.81  1212.90  1247.32  1404.48
                             1416.88  1458.44  1477.78  1491.76  1615.09
                             1627.93  1639.92  1745.86  1864.94  1910.68
                             1998.19  2027.95  2083.36  2216.36  2353.60
                             2398.51  4566.13  4623.32  4648.59  4652.25
                             5624.25  5684.68

 Zero-point correction=                           0.116369 (Hartree/Particle)
 Thermal correction to Energy=                    0.125446
 Thermal correction to Enthalpy=                  0.126390
 Thermal correction to Gibbs Free Energy=         0.080730
 Sum of electronic and zero-point Energies=           -867.709712
 Sum of electronic and thermal Energies=              -867.700635
 Sum of electronic and thermal Enthalpies=            -867.699691
 Sum of electronic and thermal Free Energies=         -867.745351

                     E (Thermal)             CV                S
                      KCal/Mol        Cal/Mol-Kelvin    Cal/Mol-Kelvin
 Total                   78.719             33.913             96.100
 Electronic               0.000              0.000              0.000
 Translational            0.889              2.981             41.044
 Rotational               0.889              2.981             30.272
 Vibrational             76.941             27.951             24.784
 Vibration     1          0.593              1.984              6.016
 Vibration     2          0.600              1.963              3.915
 Vibration     3          0.616              1.911              2.772
 Vibration     4          0.658              1.777              1.793
 Vibration     5          0.683              1.702              1.504
 Vibration     6          0.692              1.675              1.420
 Vibration     7          0.769              1.463              0.951
 Vibration     8          0.794              1.398              0.848
 Vibration     9          0.814              1.349              0.780
 Vibration    10          0.820              1.335              0.761
 Vibration    11          0.833              1.302              0.719
 Vibration    12          0.916              1.117              0.523
 Vibration    13          0.957              1.034              0.452

 Optimization completed.
    -- Stationary point found.
 Normal termination of Gaussian 16 at Sat Apr 19 13:12:02 2025.
