 Gaussian 16, Revision C.01,
 Gaussian 16:  AS64L-G16RevC.01  3-Jul-2019

 ----------------------------------------------------------------------
 # opt=(calcfc,tight) freq 6-311+g(d,p) scrf=(smd,solvent=thf) nosymm s
 cf=(qc,fermi,xqc) geom=connectivity int=ultrafine m062x
 ----------------------------------------------------------------------

 --------------------------
 4-CN-phboh2-opt-freq-2-thf
 --------------------------
 Symbolic Z-matrix:
 Charge =  0 Multiplicity = 1

 SCF Done:  E(RM062X) =  -500.479608066     A.U. after   14 cycles
 SCF Done:  E(RM062X) =  -500.479679081     A.U. after   11 cycles
 SCF Done:  E(RM062X) =  -500.479679115     A.U. after    8 cycles
 SCF Done:  E(RM062X) =  -500.479679116     A.U. after    6 cycles
 Optimization completed.
    -- Stationary point found.
 Normal termination of Gaussian 16 at Tue May  6 17:29:12 2025.

 ----------------------------------------------------------------------
 #N Geom=AllCheck Guess=TCheck SCRF=Check GenChk RM062X/6-311+G(d,p) Fr
 eq
 ----------------------------------------------------------------------

 Structure from the checkpoint file:  "4-CN-phboh2-opt-freq-2-thf.chk"
 --------------------------
 4-CN-phboh2-opt-freq-2-thf
 --------------------------
 Charge =  0 Multiplicity = 1

                          Input orientation:
 ---------------------------------------------------------------------
 Center     Atomic      Atomic             Coordinates (Angstroms)
 Number     Number       Type             X           Y           Z
 ---------------------------------------------------------------------
      1          8           0        8.736099    7.369058    5.561177
      2          1           0        9.545696    7.011794    5.944667
      3          6           0        6.272524    7.029495    5.186620
      4          5           0        7.660633    6.557989    5.763632
      5          8           0        7.849709    5.393927    6.450317
      6          1           0        7.059041    4.859955    6.573345
      7          6           0        5.108538    6.261860    5.311392
      8          1           0        5.124445    5.300200    5.815025
      9          6           0        3.896569    6.699680    4.796043
     10          1           0        2.999801    6.100631    4.895968
     11          6           0        3.843449    7.931687    4.140127
     12          6           0        4.989768    8.718431    3.999704
     13          1           0        4.931662    9.671226    3.487796
     14          6           0        6.190138    8.260344    4.522631
     15          1           0        7.081683    8.867361    4.415367
     16          6           0        2.593993    8.395161    3.603151
     17          7           0        1.593263    8.766125    3.173463
 ---------------------------------------------------------------------

 SCF Done:  E(RM062X) =  -500.479679116     A.U. after    1 cycles

 Alpha  occ. eigenvalues --  -19.64199 -19.63629 -14.76408 -10.59570 -10.59436
 Alpha  occ. eigenvalues --  -10.56846 -10.56710 -10.56319 -10.55846 -10.54808
 Alpha  occ. eigenvalues --   -7.09174  -1.17230  -1.13578  -1.03655  -0.98467
 Alpha  occ. eigenvalues --   -0.88047  -0.86518  -0.73957  -0.71181  -0.65990
 Alpha  occ. eigenvalues --   -0.64401  -0.62820  -0.56547  -0.54344  -0.52352
 Alpha  occ. eigenvalues --   -0.50646  -0.49082  -0.48472  -0.47645  -0.46148
 Alpha  occ. eigenvalues --   -0.45884  -0.43321  -0.42517  -0.40994  -0.40751
 Alpha  occ. eigenvalues --   -0.39753  -0.32832  -0.32471
 Alpha virt. eigenvalues --   -0.03899  -0.00153   0.00264   0.01624   0.01977
 Alpha virt. eigenvalues --    0.02976   0.03503   0.04222   0.04919   0.05800
 Alpha virt. eigenvalues --    0.06225   0.07195   0.07412   0.07872   0.08726

 Mulliken charges:
               1
     1  O   -0.381875
     2  H    0.328365
     3  C   -0.571071
     4  B    0.504489
     5  O   -0.375933
     6  H    0.284145
     7  C   -0.111742
     8  H    0.182511
     9  C   -0.352838
    10  H    0.208793
    11  C    1.944035
    12  C   -0.357222
    13  H    0.208904
    14  C   -0.191928
    15  H    0.207596
    16  C   -1.227974
    17  N   -0.298253
 Sum of Mulliken charges =   0.00000

 Dipole moment (field-independent basis, Debye):
    X=              3.9247    Y=             -3.1335    Z=              2.6264  Tot=              5.6675
 Quadrupole moment (field-independent basis, Debye-Ang):
   XX=            -38.1417   YY=           -104.5700   ZZ=            -41.8379
   XY=             21.9483   XZ=             24.4706   YZ=              2.5787

  Exact polarizability:     176.774     -10.976     126.598      30.549     -31.674      95.269
 Approx polarizability:     163.241      -6.897     123.706      24.754     -28.136      94.015

                      1                      2                      3
                      A                      A                      A
 Frequencies --     47.9028                79.5361               121.6263
 Red. masses --      4.6424                 8.4317                 8.5000
 Frc consts  --      0.0063                 0.0314                 0.0741
 IR Inten    --      4.5384                 2.2786                 8.5098

                      4                      5                      6
                      A                      A                      A
 Frequencies --    200.8263               205.7692               300.3201
 Red. masses --      6.7861                 5.8280                 7.7399
 Frc consts  --      0.1613                 0.1454                 0.4113
 IR Inten    --      4.8459                 6.4698                 3.7158

                      7                      8                      9
                      A                      A                      A
 Frequencies --    396.1503               402.0968               418.2529
 Red. masses --      2.7759                 3.8361                 5.5365
 Frc consts  --      0.2567                 0.3654                 0.5706
 IR Inten    --     10.9765                 1.8980                 8.2793

                     10                     11                     12
                      A                      A                      A
 Frequencies --    470.0024               479.2368               545.8620
 Red. masses --      1.1659                 4.5961                 1.5981
 Frc consts  --      0.1517                 0.6219                 0.2806
 IR Inten    --    218.1320                39.3789                42.0303

                     13                     14                     15
                      A                      A                      A
 Frequencies --    581.6767               585.5621               631.0039
 Red. masses --      7.2400                 2.5065                 4.8926
 Frc consts  --      1.4433                 0.5064                 1.1478
 IR Inten    --      1.1211                 3.5391                26.6645

                     16                     17                     18
                      A                      A                      A
 Frequencies --    651.0952               657.3417               757.3141
 Red. masses --      3.7262                 7.5611                 4.3843
 Frc consts  --      0.9307                 1.9250                 1.4815
 IR Inten    --    159.4570                 1.5271                17.5428

                     19                     20                     21
                      A                      A                      A
 Frequencies --    811.9238               858.2906               877.2088
 Red. masses --      6.5509                 1.5164                 1.3295
 Frc consts  --      2.5444                 0.6582                 0.6028
 IR Inten    --      3.9096                39.3399                13.9164

                     22                     23                     24
                      A                      A                      A
 Frequencies --    990.7084               993.2765              1019.6526
 Red. masses --      1.4310                 1.3420                 1.3777
 Frc consts  --      0.8275                 0.7801                 0.8439
 IR Inten    --    149.0476                 0.5899                 0.0596

                     25                     26                     27
                      A                      A                      A
 Frequencies --   1029.2641              1039.6746              1127.3140
 Red. masses --      1.7627                 2.2797                 2.6597
 Frc consts  --      1.1002                 1.4519                 1.9914
 IR Inten    --    178.8744                20.9703                49.8008

                     28                     29                     30
                      A                      A                      A
 Frequencies --   1142.9345              1204.4681              1240.2298
 Red. masses --      1.4240                 1.3413                 2.3174
 Frc consts  --      1.0960                 1.1464                 2.1001
 IR Inten    --     36.8182                 4.3410                 2.7121

                     31                     32                     33
                      A                      A                      A
 Frequencies --   1301.1829              1339.8630              1373.1814
 Red. masses --      9.4451                 1.3088                 4.4799
 Frc consts  --      9.4218                 1.3843                 4.9771
 IR Inten    --     52.9354                10.6568               741.6429

                     34                     35                     36
                      A                      A                      A
 Frequencies --   1402.4641              1442.6026              1552.4326
 Red. masses --      4.4943                 3.7414                 2.5840
 Frc consts  --      5.2083                 4.5875                 3.6691
 IR Inten    --    208.7308               245.5435                18.0227

                     37                     38                     39
                      A                      A                      A
 Frequencies --   1625.6254              1680.8075              2398.1565
 Red. masses --      6.6645                 6.1422                12.6859
 Frc consts  --     10.3768                10.2238                42.9861
 IR Inten    --      8.1328                15.4980               144.0757

                     40                     41                     42
                      A                      A                      A
 Frequencies --   3193.7952              3215.3801              3229.1651
 Red. masses --      1.0898                 1.0899                 1.0954
 Frc consts  --      6.5497                 6.6388                 6.7297
 IR Inten    --     12.2662                 0.5148                 0.6499

                     43                     44                     45
                      A                      A                      A
 Frequencies --   3230.4868              3849.0111              3881.7057
 Red. masses --      1.0969                 1.0652                 1.0661
 Frc consts  --      6.7447                 9.2976                 9.4646
 IR Inten    --      0.1453               210.2235               136.0145

 - Thermochemistry -
 -------------------
 Temperature   298.150 Kelvin.  Pressure   1.00000 Atm.
 Atom     1 has atomic number  8 and mass  15.99491

 Molecular mass:   147.04916 amu.
 Principal axes and moments of inertia in atomic units:
                           1         2         3
     Eigenvalues --   491.404203299.436543790.69793
           X            0.87349   0.44311  -0.20166
           Y           -0.31462   0.82989   0.46076
           Z            0.37152  -0.33902   0.86431
 This molecule is an asymmetric top.
 Rotational symmetry number  1.
 Warning -- assumption of classical behavior for rotation
           may cause significant error
 Rotational temperatures (Kelvin)      0.17626     0.02625     0.02285
 Rotational constants (GHZ):           3.67262     0.54698     0.47610
 Zero-point vibrational energy     326475.1 (Joules/Mol)
                                   78.02943 (Kcal/Mol)
 Warning -- explicit consideration of  14 degrees of freedom as
           vibrations may cause significant error
 Vibrational temperatures:     68.92   114.43   174.99   288.94   296.06
          (Kelvin)            432.09   569.97   578.53   601.77   676.23
                              689.51   785.37   836.90   842.49   907.87
                              936.78   945.77  1089.61  1168.18  1234.89
                             1262.11  1425.41  1429.10  1467.05  1480.88
                             1495.86  1621.95  1644.43  1732.96  1784.41
                             1872.11  1927.76  1975.70  2017.83  2075.58
                             2233.60  2338.91  2418.31  3450.41  4595.16
                             4626.21  4646.05  4647.95  5537.87  5584.91

 Zero-point correction=                           0.124348 (Hartree/Particle)
 Thermal correction to Energy=                    0.133947
 Thermal correction to Enthalpy=                  0.134892
 Thermal correction to Gibbs Free Energy=         0.088805
 Sum of electronic and zero-point Energies=           -500.355331
 Sum of electronic and thermal Energies=              -500.345732
 Sum of electronic and thermal Enthalpies=            -500.344788
 Sum of electronic and thermal Free Energies=         -500.390874

                     E (Thermal)             CV                S
                      KCal/Mol        Cal/Mol-Kelvin    Cal/Mol-Kelvin
 Total                   84.053             36.136             96.997
 Electronic               0.000              0.000              0.000
 Translational            0.889              2.981             40.867
 Rotational               0.889              2.981             30.198
 Vibrational             82.276             30.174             25.932
 Vibration     1          0.595              1.978              4.902
 Vibration     2          0.600              1.963              3.902
 Vibration     3          0.609              1.931              3.074
 Vibration     4          0.638              1.839              2.126
 Vibration     5          0.640              1.832              2.081
 Vibration     6          0.693              1.673              1.415
 Vibration     7          0.763              1.478              0.977
 Vibration     8          0.768              1.466              0.955
 Vibration     9          0.781              1.431              0.898
 Vibration    10          0.827              1.317              0.738
 Vibration    11          0.836              1.296              0.712
 Vibration    12          0.901              1.149              0.553
 Vibration    13          0.938              1.071              0.482
 Vibration    14          0.943              1.063              0.475

 Optimization completed.
    -- Stationary point found.
 Normal termination of Gaussian 16 at Tue May  6 17:30:50 2025.
