 Gaussian 16, Revision C.01,
 Gaussian 16:  AS64L-G16RevC.01  3-Jul-2019

 ----------------------------------------------------------------------
 # opt=(calcfc,tight) freq 6-311+g(d,p) scrf=(smd,solvent=thf) nosymm s
 cf=(qc,fermi,xqc) geom=connectivity int=ultrafine m062x
 ----------------------------------------------------------------------

 ----------------------
 4-CN-ph-opt-freq-2-thf
 ----------------------
 Symbolic Z-matrix:
 Charge =  0 Multiplicity = 2

 SCF Done:  E(UM062X) =  -323.757808568     A.U. after   19 cycles
 SCF Done:  E(UM062X) =  -323.762577253     A.U. after   16 cycles
 SCF Done:  E(UM062X) =  -323.762597901     A.U. after   11 cycles
 SCF Done:  E(UM062X) =  -323.762597983     A.U. after    9 cycles
 Optimization completed.
    -- Stationary point found.
 Normal termination of Gaussian 16 at Sun May 11 04:07:41 2025.

 ----------------------------------------------------------------------
 #N Geom=AllCheck Guess=TCheck SCRF=Check GenChk UM062X/6-311+G(d,p) Fr
 eq
 ----------------------------------------------------------------------

 Structure from the checkpoint file:  "4-CN-ph-opt-freq-2-thf.chk"
 ----------------------
 4-CN-ph-opt-freq-2-thf
 ----------------------
 Charge =  0 Multiplicity = 2

                          Input orientation:
 ---------------------------------------------------------------------
 Center     Atomic      Atomic             Coordinates (Angstroms)
 Number     Number       Type             X           Y           Z
 ---------------------------------------------------------------------
      1          6           0        6.193032    7.054790    5.153080
      2          6           0        5.100939    6.238116    5.321219
      3          1           0        5.160597    5.284925    5.833196
      4          6           0        3.891788    6.692996    4.797959
      5          1           0        2.990090    6.099835    4.894446
      6          6           0        3.849448    7.928803    4.142524
      7          6           0        4.993232    8.722174    3.998460
      8          1           0        4.930461    9.674940    3.486161
      9          6           0        6.205871    8.273786    4.519235
     10          1           0        7.106158    8.868893    4.421195
     11          6           0        2.601901    8.394710    3.605090
     12          7           0        1.602316    8.768234    3.174723
 ---------------------------------------------------------------------

 SCF Done:  E(UM062X) =  -323.762597983     A.U. after    1 cycles

 Alpha  occ. eigenvalues --  -14.76309 -10.59526 -10.59437 -10.58785 -10.57660
 Alpha  occ. eigenvalues --  -10.57657 -10.56685 -10.56682  -1.03631  -0.99481
 Alpha  occ. eigenvalues --   -0.88480  -0.87480  -0.72854  -0.72008  -0.64668
 Alpha  occ. eigenvalues --   -0.55647  -0.54489  -0.52133  -0.51760  -0.48814
 Alpha  occ. eigenvalues --   -0.46051  -0.44515  -0.43334  -0.41434  -0.33348
 Alpha  occ. eigenvalues --   -0.33245  -0.32085
 Alpha virt. eigenvalues --   -0.02727  -0.00279   0.01332   0.03138   0.03161
 Alpha virt. eigenvalues --    0.05047   0.05491   0.05763   0.06251   0.06965
 Alpha virt. eigenvalues --    0.08253   0.08473   0.09016   0.09222   0.10309

  Beta  occ. eigenvalues --  -14.76325 -10.59558 -10.59430 -10.57793 -10.57576
  Beta  occ. eigenvalues --  -10.57572 -10.56693 -10.56688  -1.03651  -0.98773
  Beta  occ. eigenvalues --   -0.87252  -0.87078  -0.71506  -0.71126  -0.64408
  Beta  occ. eigenvalues --   -0.54837  -0.53356  -0.51279  -0.50420  -0.48592
  Beta  occ. eigenvalues --   -0.45822  -0.44024  -0.42811  -0.41341  -0.33413
  Beta  occ. eigenvalues --   -0.32043
  Beta virt. eigenvalues --   -0.06049  -0.01646  -0.00307   0.01294   0.03256
  Beta virt. eigenvalues --    0.03360   0.05015   0.05489   0.06263   0.06592
  Beta virt. eigenvalues --    0.07038   0.08581   0.08766   0.09090   0.09289

 Mulliken charges and spin densities:
               1          2
     1  C    0.257974   0.827998
     2  C   -0.330791   0.060368
     3  H    0.216298   0.017771
     4  C   -0.348576   0.016309
     5  H    0.216351   0.003481
     6  C    1.677377  -0.011292
     7  C   -0.348460   0.016299
     8  H    0.216376   0.003480
     9  C   -0.330851   0.060193
    10  H    0.216317   0.017779
    11  C   -1.130283   0.001721
    12  N   -0.311732  -0.014107
 Sum of Mulliken charges =   0.00000   1.00000

 Dipole moment (field-independent basis, Debye):
    X=              4.1037    Y=             -1.5323    Z=              1.7677  Tot=              4.7237
 Quadrupole moment (field-independent basis, Debye-Ang):
   XX=            -21.0672   YY=            -65.1731   ZZ=            -34.1154
   XY=             33.8832   XZ=             19.1586   YZ=              5.1441

  Exact polarizability:     138.077      -5.754     104.461      22.050     -25.928      76.116
 Approx polarizability:     131.756      -4.771     101.440      20.102     -24.243      74.574

                      1                      2                      3
                      A                      A                      A
 Frequencies --    152.8417               171.1594               394.1913
 Red. masses --      7.8410                 6.8282                 2.8198
 Frc consts  --      0.1079                 0.1179                 0.2582
 IR Inten    --      6.3607                10.6138                 0.0215

                      4                      5                      6
                      A                      A                      A
 Frequencies --    406.9363               468.9175               563.4447
 Red. masses --      5.1477                 9.7086                 4.2534
 Frc consts  --      0.5022                 1.2578                 0.7956
 IR Inten    --      2.9838                 0.5819                42.6471

                      7                      8                      9
                      A                      A                      A
 Frequencies --    574.0952               624.7595               697.9922
 Red. masses --      7.3338                 8.0612                 3.6530
 Frc consts  --      1.4241                 1.8539                 1.0486
 IR Inten    --      1.6533                 0.0168                 9.1357

                     10                     11                     12
                      A                      A                      A
 Frequencies --    757.4390               814.8726               835.5847
 Red. masses --      6.1917                 1.4958                 1.2441
 Frc consts  --      2.0929                 0.5852                 0.5118
 IR Inten    --      7.7830                98.8413                 0.1787

                     13                     14                     15
                      A                      A                      A
 Frequencies --    976.0597               994.7253               998.0879
 Red. masses --      1.3327                 1.3915                 6.5542
 Frc consts  --      0.7480                 0.8112                 3.8469
 IR Inten    --      1.6585                 0.0711                 1.7924

                     16                     17                     18
                      A                      A                      A
 Frequencies --   1056.8813              1109.5260              1175.0571
 Red. masses --      2.1142                 1.3250                 1.1229
 Frc consts  --      1.3914                 0.9610                 0.9135
 IR Inten    --     17.3830                 6.6298                 1.4153

                     19                     20                     21
                      A                      A                      A
 Frequencies --   1219.5754              1296.6280              1319.7415
 Red. masses --      4.1900                 1.7052                 2.9480
 Frc consts  --      3.6718                 1.6891                 3.0252
 IR Inten    --      3.6077                 3.7578                11.6389

                     22                     23                     24
                      A                      A                      A
 Frequencies --   1404.1929              1491.3975              1621.9953
 Red. masses --      3.1398                 2.4793                 5.6002
 Frc consts  --      3.6475                 3.2491                 8.6806
 IR Inten    --      6.6046                21.5501                13.5186

                     25                     26                     27
                      A                      A                      A
 Frequencies --   1646.3031              2397.5966              3212.8031
 Red. masses --      7.9646                12.6850                 1.0886
 Frc consts  --     12.7185                42.9628                 6.6206
 IR Inten    --      3.2066               150.7560                 0.4267

                     28                     29                     30
                      A                      A                      A
 Frequencies --   3213.0456              3226.1698              3227.0892
 Red. masses --      1.0893                 1.0963                 1.0976
 Frc consts  --      6.6257                 6.7230                 6.7347
 IR Inten    --      0.4875                 0.5303                 0.0197

 - Thermochemistry -
 -------------------
 Temperature   298.150 Kelvin.  Pressure   1.00000 Atm.
 Atom     1 has atomic number  6 and mass  12.00000

 Molecular mass:   102.03437 amu.
 Principal axes and moments of inertia in atomic units:
                           1         2         3
     Eigenvalues --   323.501961104.231571427.73347
           X            0.86871   0.45098  -0.20483
           Y           -0.32430   0.83043   0.45301
           Z            0.37440  -0.32711   0.86765
 This molecule is an asymmetric top.
 Rotational symmetry number  1.
 Rotational temperatures (Kelvin)      0.26774     0.07844     0.06067
 Rotational constants (GHZ):           5.57876     1.63439     1.26406
 Zero-point vibrational energy     227584.2 (Joules/Mol)
                                   54.39393 (Kcal/Mol)
 Warning -- explicit consideration of   7 degrees of freedom as
           vibrations may cause significant error
 Vibrational temperatures:    219.91   246.26   567.15   585.49   674.67
          (Kelvin)            810.67   825.99   898.89  1004.26  1089.79
                             1172.42  1202.22  1404.33  1431.19  1436.03
                             1520.62  1596.36  1690.65  1754.70  1865.56
                             1898.81  2020.32  2145.79  2333.69  2368.66
                             3449.61  4622.51  4622.86  4641.74  4643.06

 Zero-point correction=                           0.086682 (Hartree/Particle)
 Thermal correction to Energy=                    0.092720
 Thermal correction to Enthalpy=                  0.093664
 Thermal correction to Gibbs Free Energy=         0.055862
 Sum of electronic and zero-point Energies=           -323.675916
 Sum of electronic and thermal Energies=              -323.669878
 Sum of electronic and thermal Enthalpies=            -323.668934
 Sum of electronic and thermal Free Energies=         -323.706736

                     E (Thermal)             CV                S
                      KCal/Mol        Cal/Mol-Kelvin    Cal/Mol-Kelvin
 Total                   58.183             22.688             79.560
 Electronic               0.000              0.000              1.377
 Translational            0.889              2.981             39.778
 Rotational               0.889              2.981             27.725
 Vibrational             56.405             16.726             10.680
 Vibration     1          0.619              1.900              2.637
 Vibration     2          0.626              1.878              2.423
 Vibration     3          0.761              1.483              0.984
 Vibration     4          0.772              1.455              0.938
 Vibration     5          0.826              1.319              0.741
 Vibration     6          0.919              1.110              0.517
 Vibration     7          0.930              1.087              0.496

 Optimization completed.
    -- Stationary point found.
 Normal termination of Gaussian 16 at Sun May 11 04:08:48 2025.
