 Gaussian 16, Revision C.01,
 Gaussian 16:  AS64L-G16RevC.01  3-Jul-2019

 ----------------------------------------------------------------------
 # opt=(calcfc,tight) freq 6-311+g(d,p) scrf=(smd,solvent=thf) nosymm s
 cf=(qc,fermi,xqc) geom=connectivity int=ultrafine m062x
 ----------------------------------------------------------------------

 ----------------------------
 4-CN-ph-anion-opt-freq-2-thf
 ----------------------------
 Symbolic Z-matrix:
 Charge = -1 Multiplicity = 1

 SCF Done:  E(RM062X) =  -323.882044822     A.U. after   16 cycles
 SCF Done:  E(RM062X) =  -323.895597874     A.U. after   14 cycles
 SCF Done:  E(RM062X) =  -323.896054470     A.U. after   13 cycles
 SCF Done:  E(RM062X) =  -323.896056994     A.U. after   10 cycles
 SCF Done:  E(RM062X) =  -323.896057024     A.U. after    9 cycles
 SCF Done:  E(RM062X) =  -323.896057037     A.U. after    8 cycles
 Optimization completed.
    -- Stationary point found.
 Normal termination of Gaussian 16 at Tue May 27 07:43:06 2025.

 ----------------------------------------------------------------------
 #N Geom=AllCheck Guess=TCheck SCRF=Check GenChk RM062X/6-311+G(d,p) Fr
 eq
 ----------------------------------------------------------------------

 Structure from the checkpoint file:  "4-CN-ph-anion-opt-freq-2-thf.chk"
 ----------------------------
 4-CN-ph-anion-opt-freq-2-thf
 ----------------------------
 Charge = -1 Multiplicity = 1

                          Input orientation:
 ---------------------------------------------------------------------
 Center     Atomic      Atomic             Coordinates (Angstroms)
 Number     Number       Type             X           Y           Z
 ---------------------------------------------------------------------
      1          6           0        6.333857    7.001677    5.211589
      2          6           0        5.120005    6.275130    5.305927
      3          1           0        5.114961    5.307890    5.808736
      4          6           0        3.897227    6.703632    4.795505
      5          1           0        2.998822    6.102165    4.898123
      6          6           0        3.828717    7.936671    4.135076
      7          6           0        4.987354    8.712258    4.003730
      8          1           0        4.934563    9.668600    3.491830
      9          6           0        6.184491    8.237532    4.533398
     10          1           0        7.053980    8.881785    4.401677
     11          6           0        2.586469    8.400228    3.597845
     12          7           0        1.585385    8.774634    3.163853
 ---------------------------------------------------------------------

 SCF Done:  E(RM062X) =  -323.896057037     A.U. after    1 cycles

 Alpha  occ. eigenvalues --  -14.73625 -10.56960 -10.54845 -10.52548 -10.52545
 Alpha  occ. eigenvalues --  -10.50191 -10.50186 -10.46466  -1.00920  -0.93175
 Alpha  occ. eigenvalues --   -0.81604  -0.81256  -0.67164  -0.65370  -0.59553
 Alpha  occ. eigenvalues --   -0.49382  -0.48681  -0.46031  -0.45540  -0.44805
 Alpha  occ. eigenvalues --   -0.42786  -0.39708  -0.38508  -0.35179  -0.28275
 Alpha  occ. eigenvalues --   -0.26613  -0.20726
 Alpha virt. eigenvalues --    0.01734   0.02916   0.04488   0.04937   0.05104
 Alpha virt. eigenvalues --    0.06829   0.07216   0.08265   0.08271   0.08847
 Alpha virt. eigenvalues --    0.10438   0.10931   0.11186   0.11311   0.12509

 Mulliken charges:
               1
     1  C   -0.913554
     2  C   -0.027479
     3  H    0.158605
     4  C   -0.456315
     5  H    0.183891
     6  C    1.730447
     7  C   -0.453812
     8  H    0.183889
     9  C   -0.028452
    10  H    0.158648
    11  C   -1.170022
    12  N   -0.365846
 Sum of Mulliken charges =  -1.00000

 Dipole moment (field-independent basis, Debye):
    X=            -24.8566    Y=            -35.7088    Z=            -22.6274  Tot=             49.0405
 Quadrupole moment (field-independent basis, Debye-Ang):
   XX=           -212.0352   YY=           -317.5955   ZZ=           -164.7837
   XY=           -169.9321   XZ=           -132.0168   YZ=           -165.2217

  Exact polarizability:     178.937     -15.656     123.349      32.722     -28.860      97.841
 Approx polarizability:     154.620      -9.875     114.020      24.914     -24.819      89.773

                      1                      2                      3
                      A                      A                      A
 Frequencies --    146.1886               171.9503               364.2037
 Red. masses --      8.3445                 6.8582                 2.6462
 Frc consts  --      0.1051                 0.1195                 0.2068
 IR Inten    --     37.6463                22.8391                 0.0386

                      4                      5                      6
                      A                      A                      A
 Frequencies --    387.5606               459.3163               582.7752
 Red. masses --      5.7034                 9.5011                 6.4521
 Frc consts  --      0.5047                 1.1810                 1.2911
 IR Inten    --     15.7967                 5.7460                17.8341

                      7                      8                      9
                      A                      A                      A
 Frequencies --    583.5429               652.1388               707.6474
 Red. masses --      6.4449                 7.6945                 3.0851
 Frc consts  --      1.2930                 1.9280                 0.9102
 IR Inten    --     18.2193                 0.2787                 4.2569

                     10                     11                     12
                      A                      A                      A
 Frequencies --    762.8884               825.2092               879.4955
 Red. masses --      6.8642                 1.4958                 1.2555
 Frc consts  --      2.3538                 0.6001                 0.5722
 IR Inten    --      4.0167                44.5828                 0.0033

                     13                     14                     15
                      A                      A                      A
 Frequencies --    988.0510               995.7265              1010.8865
 Red. masses --      7.1734                 1.2874                 1.4306
 Frc consts  --      4.1260                 0.7520                 0.8613
 IR Inten    --      2.4210                 1.8542                 0.0051

                     16                     17                     18
                      A                      A                      A
 Frequencies --   1046.6181              1106.8742              1194.8807
 Red. masses --      2.5485                 1.5589                 1.3432
 Frc consts  --      1.6448                 1.1253                 1.1299
 IR Inten    --     12.4863                 0.3853                27.6923

                     19                     20                     21
                      A                      A                      A
 Frequencies --   1240.3951              1260.2454              1336.0110
 Red. masses --      2.4803                 6.6514                 1.3104
 Frc consts  --      2.2484                 6.2240                 1.3781
 IR Inten    --      6.5925                 9.7214                 0.2319

                     22                     23                     24
                      A                      A                      A
 Frequencies --   1404.0860              1493.1067              1577.0109
 Red. masses --      2.4152                 2.1289                 6.2037
 Frc consts  --      2.8054                 2.7964                 9.0902
 IR Inten    --      5.1415                 7.5246                 3.7578

                     25                     26                     27
                      A                      A                      A
 Frequencies --   1610.6101              2365.0548              3120.7163
 Red. masses --      5.1318                12.6885                 1.0871
 Frc consts  --      7.8433                41.8162                 6.2378
 IR Inten    --     91.8418               413.8427                70.0381

                     28                     29                     30
                      A                      A                      A
 Frequencies --   3124.2713              3188.3445              3189.2716
 Red. masses --      1.0872                 1.0934                 1.0935
 Frc consts  --      6.2526                 6.5488                 6.5533
 IR Inten    --     45.9301                23.2140                20.8083

 - Thermochemistry -
 -------------------
 Temperature   298.150 Kelvin.  Pressure   1.00000 Atm.
 Atom     1 has atomic number  6 and mass  12.00000

 Molecular mass:   102.03437 amu.
 Principal axes and moments of inertia in atomic units:
                           1         2         3
     Eigenvalues --   311.425221144.110061455.53409
           X            0.86855   0.45118  -0.20506
           Y           -0.32438   0.83037   0.45305
           Z            0.37469  -0.32698   0.86758
 This molecule is an asymmetric top.
 Rotational symmetry number  1.
 Rotational temperatures (Kelvin)      0.27812     0.07570     0.05951
 Rotational constants (GHZ):           5.79510     1.57742     1.23992
 Zero-point vibrational energy     225945.1 (Joules/Mol)
                                   54.00218 (Kcal/Mol)
 Warning -- explicit consideration of   7 degrees of freedom as
           vibrations may cause significant error
 Vibrational temperatures:    210.33   247.40   524.01   557.61   660.85
          (Kelvin)            838.48   839.59   938.28  1018.15  1097.63
                             1187.29  1265.40  1421.58  1432.63  1454.44
                             1505.85  1592.55  1719.17  1784.65  1813.21
                             1922.22  2020.17  2148.25  2268.97  2317.31
                             3402.79  4490.01  4495.13  4587.32  4588.65

 Zero-point correction=                           0.086058 (Hartree/Particle)
 Thermal correction to Energy=                    0.092111
 Thermal correction to Enthalpy=                  0.093055
 Thermal correction to Gibbs Free Energy=         0.055834
 Sum of electronic and zero-point Energies=           -323.809999
 Sum of electronic and thermal Energies=              -323.803946
 Sum of electronic and thermal Enthalpies=            -323.803002
 Sum of electronic and thermal Free Energies=         -323.840223

                     E (Thermal)             CV                S
                      KCal/Mol        Cal/Mol-Kelvin    Cal/Mol-Kelvin
 Total                   57.801             22.576             78.339
 Electronic               0.000              0.000              0.000
 Translational            0.889              2.981             39.778
 Rotational               0.889              2.981             27.741
 Vibrational             56.023             16.614             10.820
 Vibration     1          0.617              1.907              2.721
 Vibration     2          0.626              1.877              2.414
 Vibration     3          0.738              1.546              1.104
 Vibration     4          0.756              1.497              1.010
 Vibration     5          0.817              1.340              0.768
 Vibration     6          0.940              1.069              0.480
 Vibration     7          0.940              1.067              0.479

 Optimization completed.
    -- Stationary point found.
 Normal termination of Gaussian 16 at Tue May 27 07:43:47 2025.
