 Gaussian 16, Revision C.01,
 Gaussian 16:  AS64L-G16RevC.01  3-Jul-2019

 ----------------------------------------------------------------------
 # opt=(calcfc,tight) freq 6-311+g(d,p) scrf=(smd,solvent=thf) nosymm s
 cf=(qc,fermi,xqc) geom=connectivity int=ultrafine m062x
 ----------------------------------------------------------------------

 ------------------------------
 4-cooch3-ph-anion-opt-freq-thf
 ------------------------------
 Symbolic Z-matrix:
 Charge = -1 Multiplicity = 1

 SCF Done:  E(RM062X) =  -459.501177826     A.U. after   17 cycles
 SCF Done:  E(RM062X) =  -459.515155128     A.U. after   15 cycles
 SCF Done:  E(RM062X) =  -459.515645779     A.U. after   13 cycles
 SCF Done:  E(RM062X) =  -459.515645843     A.U. after   12 cycles
 SCF Done:  E(RM062X) =  -459.515653365     A.U. after   11 cycles
 SCF Done:  E(RM062X) =  -459.515653485     A.U. after    9 cycles
 SCF Done:  E(RM062X) =  -459.515653524     A.U. after    9 cycles
 SCF Done:  E(RM062X) =  -459.515653524     A.U. after    6 cycles
 Optimization completed.
    -- Stationary point found.
 Normal termination of Gaussian 16 at Tue May 27 07:46:57 2025.

 ----------------------------------------------------------------------
 #N Geom=AllCheck Guess=TCheck SCRF=Check GenChk RM062X/6-311+G(d,p) Fr
 eq
 ----------------------------------------------------------------------

 Structure from the checkpoint file:  "4-cooch3-ph-anion-opt-freq-thf.chk"
 ------------------------------
 4-cooch3-ph-anion-opt-freq-thf
 ------------------------------
 Charge = -1 Multiplicity = 1

                          Input orientation:
 ---------------------------------------------------------------------
 Center     Atomic      Atomic             Coordinates (Angstroms)
 Number     Number       Type             X           Y           Z
 ---------------------------------------------------------------------
      1          6           0        6.308858    6.984748    5.214239
      2          6           0        5.104344    6.253103    5.364641
      3          1           0        5.129486    5.282495    5.861614
      4          6           0        3.854018    6.680839    4.918238
      5          1           0        2.971381    6.067445    5.068135
      6          6           0        3.733913    7.913470    4.268049
      7          6           0        4.884836    8.686285    4.086380
      8          1           0        4.798032    9.644421    3.582166
      9          6           0        6.114516    8.222243    4.549992
     10          1           0        6.971856    8.873781    4.376518
     11          6           0        2.440413    8.428022    3.766837
     12          8           0        1.411766    7.599903    4.020119
     13          6           0        0.132095    8.039510    3.563948
     14          1           0       -0.568504    7.257165    3.847634
     15          1           0       -0.143279    8.981488    4.040347
     16          1           0        0.132915    8.168727    2.480778
     17          8           0        2.287652    9.479530    3.186093
 ---------------------------------------------------------------------

 SCF Done:  E(RM062X) =  -459.515653524     A.U. after    1 cycles

 Alpha  occ. eigenvalues --  -19.64906 -19.59173 -10.65315 -10.56984 -10.51981
 Alpha  occ. eigenvalues --  -10.51257 -10.51148 -10.49402 -10.49398 -10.45822
 Alpha  occ. eigenvalues --   -1.21842  -1.12110  -0.92140  -0.82991  -0.80113
 Alpha  occ. eigenvalues --   -0.77771  -0.66734  -0.64277  -0.61649  -0.58547
 Alpha  occ. eigenvalues --   -0.54942  -0.54259  -0.49403  -0.47882  -0.46210
 Alpha  occ. eigenvalues --   -0.45694  -0.44430  -0.43365  -0.40799  -0.39360
 Alpha  occ. eigenvalues --   -0.35922  -0.34433  -0.33778  -0.27317  -0.26098
 Alpha  occ. eigenvalues --   -0.20195
 Alpha virt. eigenvalues --    0.01647   0.02897   0.04582   0.04926   0.05231
 Alpha virt. eigenvalues --    0.05853   0.06531   0.06687   0.08208   0.08877
 Alpha virt. eigenvalues --    0.08986   0.09701   0.10972   0.11421   0.12010

 Mulliken charges:
               1
     1  C   -0.929451
     2  C   -0.251506
     3  H    0.150935
     4  C   -0.202342
     5  H    0.176694
     6  C    0.562045
     7  C   -0.139433
     8  H    0.174346
     9  C   -0.272537
    10  H    0.151981
    11  C   -0.230642
    12  O   -0.122366
    13  C   -0.255748
    14  H    0.185257
    15  H    0.181671
    16  H    0.181325
    17  O   -0.360231
 Sum of Mulliken charges =  -1.00000

 Dipole moment (field-independent basis, Debye):
    X=            -29.7567    Y=            -35.7854    Z=            -23.7669  Tot=             52.2582
 Quadrupole moment (field-independent basis, Debye-Ang):
   XX=           -244.3062   YY=           -336.6212   ZZ=           -185.8189
   XY=           -210.9810   XZ=           -151.9869   YZ=           -172.3421

  Exact polarizability:     194.300      -9.442     144.824      23.616     -29.090     110.532
 Approx polarizability:     157.582      -2.509     139.460      14.082     -27.032     104.107

                      1                      2                      3
                      A                      A                      A
 Frequencies --     59.2626               108.7620               170.8706
 Red. masses --      4.8348                 3.4491                 3.9139
 Frc consts  --      0.0100                 0.0240                 0.0673
 IR Inten    --      0.3639                 1.4244                 1.6717

                      4                      5                      6
                      A                      A                      A
 Frequencies --    182.7787               203.3863               340.2210
 Red. masses --      1.3281                 3.3186                 4.7913
 Frc consts  --      0.0261                 0.0809                 0.3268
 IR Inten    --      7.3583                26.3047                29.2832

                      7                      8                      9
                      A                      A                      A
 Frequencies --    363.3677               380.9648               435.5587
 Red. masses --      5.8252                 2.6623                 4.4893
 Frc consts  --      0.4532                 0.2277                 0.5018
 IR Inten    --     10.0912                 0.0107                23.1887

                     10                     11                     12
                      A                      A                      A
 Frequencies --    489.7150               641.7334               679.2196
 Red. masses --      7.2885                 7.0692                 6.9400
 Frc consts  --      1.0298                 1.7153                 1.8864
 IR Inten    --      6.9713                 3.0461                16.6037

                     13                     14                     15
                      A                      A                      A
 Frequencies --    704.8087               763.1350               847.5231
 Red. masses --      3.9688                 2.3398                 5.2191
 Frc consts  --      1.1616                 0.8029                 2.2087
 IR Inten    --      0.2842                83.4336                 8.6898

                     16                     17                     18
                      A                      A                      A
 Frequencies --    859.9148               890.3766               991.2216
 Red. masses --      2.1934                 1.2607                 7.3479
 Frc consts  --      0.9556                 0.5888                 4.2536
 IR Inten    --      5.7444                 0.0349                 3.1415

                     19                     20                     21
                      A                      A                      A
 Frequencies --   1004.7989              1017.9089              1018.3586
 Red. masses --      1.2884                 4.0412                 1.6135
 Frc consts  --      0.7664                 2.4671                 0.9858
 IR Inten    --      0.9265                12.2260                 2.0224

                     22                     23                     24
                      A                      A                      A
 Frequencies --   1053.8544              1104.7117              1160.3357
 Red. masses --      2.4374                 1.5235                 2.9079
 Frc consts  --      1.5949                 1.0954                 2.3067
 IR Inten    --     31.5812                 7.7695               110.5668

                     25                     26                     27
                      A                      A                      A
 Frequencies --   1185.1630              1203.3892              1229.4218
 Red. masses --      1.2863                 1.2804                 1.7320
 Frc consts  --      1.0645                 1.0925                 1.5424
 IR Inten    --      1.9032               146.1139               100.3993

                     28                     29                     30
                      A                      A                      A
 Frequencies --   1265.0465              1317.5071              1338.8834
 Red. masses --      6.1206                 3.6151                 1.4112
 Frc consts  --      5.7710                 3.6972                 1.4905
 IR Inten    --      8.6667               776.0780                70.8427

                     31                     32                     33
                      A                      A                      A
 Frequencies --   1400.8193              1484.0749              1489.8226
 Red. masses --      2.5046                 1.2622                 1.0430
 Frc consts  --      2.8957                 1.6380                 1.3640
 IR Inten    --     23.6703                44.8705                16.9714

                     34                     35                     36
                      A                      A                      A
 Frequencies --   1499.7080              1502.8201              1592.4464
 Red. masses --      1.4240                 1.3664                 6.5502
 Frc consts  --      1.8870                 1.8181                 9.7867
 IR Inten    --     33.1363                 3.3538                22.0848

                     37                     38                     39
                      A                      A                      A
 Frequencies --   1616.2970              1786.6672              3080.3053
 Red. masses --      5.2784                11.8980                 1.0312
 Frc consts  --      8.1245                22.3774                 5.7645
 IR Inten    --    146.3311               653.9102                43.1910

                     40                     41                     42
                      A                      A                      A
 Frequencies --   3111.6676              3116.1061              3156.6517
 Red. masses --      1.0870                 1.0871                 1.1073
 Frc consts  --      6.2011                 6.2194                 6.5009
 IR Inten    --     82.6839                57.8605                23.3770

                     43                     44                     45
                      A                      A                      A
 Frequencies --   3188.1510              3188.5823              3198.6872
 Red. masses --      1.0921                 1.1058                 1.0919
 Frc consts  --      6.5402                 6.6238                 6.5826
 IR Inten    --     14.7557                19.8163                18.3720

 - Thermochemistry -
 -------------------
 Temperature   298.150 Kelvin.  Pressure   1.00000 Atm.
 Atom     1 has atomic number  6 and mass  12.00000

 Molecular mass:   135.04460 amu.
 Principal axes and moments of inertia in atomic units:
                           1         2         3
     Eigenvalues --   501.328942114.971672604.83574
           X            0.93908   0.30505  -0.15836
           Y           -0.20570   0.86792   0.45211
           Z            0.27536  -0.39199   0.87779
 This molecule is an asymmetric top.
 Rotational symmetry number  1.
 Warning -- assumption of classical behavior for rotation
           may cause significant error
 Rotational temperatures (Kelvin)      0.17277     0.04095     0.03325
 Rotational constants (GHZ):           3.59991     0.85332     0.69284
 Zero-point vibrational energy     343477.8 (Joules/Mol)
                                   82.09317 (Kcal/Mol)
 Warning -- explicit consideration of  10 degrees of freedom as
           vibrations may cause significant error
 Vibrational temperatures:     85.27   156.48   245.84   262.98   292.63
          (Kelvin)            489.50   522.81   548.12   626.67   704.59
                              923.31   977.25  1014.06  1097.98  1219.40
                             1237.23  1281.05  1426.15  1445.68  1464.54
                             1465.19  1516.26  1589.43  1669.46  1705.19
                             1731.41  1768.86  1820.12  1895.60  1926.35
                             2015.47  2135.25  2143.52  2157.75  2162.22
                             2291.18  2325.49  2570.62  4431.87  4477.00
                             4483.38  4541.72  4587.04  4587.66  4602.20

 Zero-point correction=                           0.130824 (Hartree/Particle)
 Thermal correction to Energy=                    0.139476
 Thermal correction to Enthalpy=                  0.140420
 Thermal correction to Gibbs Free Energy=         0.096677
 Sum of electronic and zero-point Energies=           -459.384830
 Sum of electronic and thermal Energies=              -459.376178
 Sum of electronic and thermal Enthalpies=            -459.375233
 Sum of electronic and thermal Free Energies=         -459.418977

                     E (Thermal)             CV                S
                      KCal/Mol        Cal/Mol-Kelvin    Cal/Mol-Kelvin
 Total                   87.523             31.654             92.066
 Electronic               0.000              0.000              0.000
 Translational            0.889              2.981             40.614
 Rotational               0.889              2.981             29.403
 Vibrational             85.745             25.692             22.049
 Vibration     1          0.597              1.974              4.482
 Vibration     2          0.606              1.942              3.291
 Vibration     3          0.626              1.878              2.426
 Vibration     4          0.630              1.863              2.300
 Vibration     5          0.639              1.835              2.102
 Vibration     6          0.720              1.595              1.211
 Vibration     7          0.737              1.548              1.108
 Vibration     8          0.751              1.511              1.035
 Vibration     9          0.796              1.393              0.841
 Vibration    10          0.846              1.273              0.684

 Optimization completed.
    -- Stationary point found.
 Normal termination of Gaussian 16 at Tue May 27 07:48:29 2025.
