 Gaussian 16, Revision C.01,
 Gaussian 16:  AS64L-G16RevC.01  3-Jul-2019

 ----------------------------------------------------------------------
 # opt=(calcfc,tight) freq 6-311+g(d,p) nosymm scf=(qc,fermi,xqc) geom=
 connectivity int=ultrafine m062x
 ----------------------------------------------------------------------

 ------------------------
 4-cooch3-phboh2-opt-freq
 ------------------------
 Symbolic Z-matrix:
 Charge =  0 Multiplicity = 1

 SCF Done:  E(RM062X) =  -635.972249325     A.U. after   18 cycles
 SCF Done:  E(RM062X) =  -636.029699667     A.U. after   15 cycles
 SCF Done:  E(RM062X) =  -636.071012246     A.U. after   15 cycles
 SCF Done:  E(RM062X) =  -636.082064399     A.U. after   15 cycles
 SCF Done:  E(RM062X) =  -636.083462450     A.U. after   15 cycles
 SCF Done:  E(RM062X) =  -636.087704325     A.U. after   14 cycles
 SCF Done:  E(RM062X) =  -636.087948893     A.U. after   13 cycles
 SCF Done:  E(RM062X) =  -636.087979366     A.U. after   12 cycles
 SCF Done:  E(RM062X) =  -636.087994030     A.U. after   12 cycles
 SCF Done:  E(RM062X) =  -636.087994828     A.U. after   11 cycles
 SCF Done:  E(RM062X) =  -636.087995170     A.U. after   11 cycles
 SCF Done:  E(RM062X) =  -636.087995240     A.U. after   10 cycles
 SCF Done:  E(RM062X) =  -636.087995242     A.U. after    8 cycles
 SCF Done:  E(RM062X) =  -636.087995242     A.U. after    6 cycles
 SCF Done:  E(RM062X) =  -636.087995243     A.U. after    8 cycles
 SCF Done:  E(RM062X) =  -636.087995242     A.U. after    8 cycles
 Optimization completed.
    -- Stationary point found.
 Normal termination of Gaussian 16 at Wed Apr 30 05:25:47 2025.

 ----------------------------------------------------------------------
 #N Geom=AllCheck Guess=TCheck SCRF=Check GenChk RM062X/6-311+G(d,p) Fr
 eq
 ----------------------------------------------------------------------

 Structure from the checkpoint file:  "4-cooch3-phboh2-opt-freq.chk"
 ------------------------
 4-cooch3-phboh2-opt-freq
 ------------------------
 Charge =  0 Multiplicity = 1

                          Input orientation:
 ---------------------------------------------------------------------
 Center     Atomic      Atomic             Coordinates (Angstroms)
 Number     Number       Type             X           Y           Z
 ---------------------------------------------------------------------
      1          8           0        8.732804    7.305432    5.354167
      2          1           0        9.551892    6.954496    5.715446
      3          6           0        6.239429    7.012391    5.190772
      4          5           0        7.653289    6.549184    5.693239
      5          8           0        7.865849    5.434288    6.455947
      6          1           0        7.070144    4.959964    6.701959
      7          6           0        5.087691    6.238617    5.369310
      8          1           0        5.142209    5.269930    5.858584
      9          6           0        3.846774    6.673775    4.922312
     10          1           0        2.961094    6.068155    5.063507
     11          6           0        3.744580    7.907063    4.280786
     12          6           0        4.879793    8.692972    4.087636
     13          1           0        4.773983    9.646307    3.584056
     14          6           0        6.113396    8.244832    4.537326
     15          1           0        6.999220    8.851046    4.386753
     16          6           0        2.439602    8.429542    3.779099
     17          8           0        1.422479    7.588638    4.018274
     18          6           0        0.144708    8.032913    3.559726
     19          1           0       -0.555024    7.246383    3.828825
     20          1           0       -0.124638    8.971664    4.044006
     21          1           0        0.161991    8.181506    2.479937
     22          8           0        2.300849    9.485577    3.220420
 ---------------------------------------------------------------------

 SCF Done:  E(RM062X) =  -636.087995242     A.U. after    1 cycles

 Alpha  occ. eigenvalues --  -19.67657 -19.64620 -19.63810 -19.61921 -10.68102
 Alpha  occ. eigenvalues --  -10.59686 -10.56859 -10.56231 -10.56026 -10.55575
 Alpha  occ. eigenvalues --  -10.55342 -10.54378  -7.09246  -1.24739  -1.17653
 Alpha  occ. eigenvalues --   -1.15132  -1.13960  -0.97856  -0.88150  -0.85880
 Alpha  occ. eigenvalues --   -0.82507  -0.72636  -0.70537  -0.66707  -0.65461
 Alpha  occ. eigenvalues --   -0.64101  -0.62075  -0.57684  -0.57602  -0.55827
 Alpha  occ. eigenvalues --   -0.53117  -0.52670  -0.50531  -0.49878  -0.49033
 Alpha  occ. eigenvalues --   -0.48302  -0.47285  -0.46289  -0.44129  -0.43948
 Alpha  occ. eigenvalues --   -0.41252  -0.41187  -0.39822  -0.38465  -0.36375
 Alpha  occ. eigenvalues --   -0.32355  -0.32122
 Alpha virt. eigenvalues --   -0.03630  -0.00703   0.00792   0.01114   0.01600
 Alpha virt. eigenvalues --    0.02709   0.02911   0.03619   0.04519   0.04829
 Alpha virt. eigenvalues --    0.05000   0.05994   0.06402   0.07518   0.07915

 Mulliken charges:
               1
     1  O   -0.357279
     2  H    0.301870
     3  C   -0.373486
     4  B    0.474114
     5  O   -0.355857
     6  H    0.258822
     7  C   -0.333442
     8  H    0.122326
     9  C   -0.413773
    10  H    0.178633
    11  C    0.725603
    12  C   -0.158135
    13  H    0.185302
    14  C   -0.297665
    15  H    0.185499
    16  C   -0.072228
    17  O   -0.101262
    18  C   -0.214605
    19  H    0.171529
    20  H    0.178245
    21  H    0.178496
    22  O   -0.282707
 Sum of Mulliken charges =   0.00000

 Dipole moment (field-independent basis, Debye):
    X=             -0.9215    Y=             -2.4511    Z=              1.3340  Tot=              2.9388
 Quadrupole moment (field-independent basis, Debye-Ang):
   XX=            -71.0935   YY=           -112.8781   ZZ=            -64.0612
   XY=            -15.2413   XZ=              3.6010   YZ=             -1.9430

  Exact polarizability:     156.755      -7.490     110.352      19.831     -24.029      83.798
 Approx polarizability:     165.888       0.839     148.836      13.274     -31.288     107.495

                      1                      2                      3
                      A                      A                      A
 Frequencies --     27.3332                53.1861                69.7858
 Red. masses --      5.5708                 4.4161                 5.6112
 Frc consts  --      0.0025                 0.0074                 0.0161
 IR Inten    --      0.7588                 1.7214                 0.7419

                      4                      5                      6
                      A                      A                      A
 Frequencies --    111.9777               138.5642               173.5978
 Red. masses --      5.3592                 2.9351                 1.2115
 Frc consts  --      0.0396                 0.0332                 0.0215
 IR Inten    --      0.2069                 2.3965                 0.0378

                      7                      8                      9
                      A                      A                      A
 Frequencies --    196.1110               246.5917               261.7834
 Red. masses --      4.8118                 5.5706                 7.2992
 Frc consts  --      0.1090                 0.1996                 0.2947
 IR Inten    --      4.4363                 3.7725                 2.0576

                     10                     11                     12
                      A                      A                      A
 Frequencies --    337.5299               406.6868               414.3040
 Red. masses --      4.5197                 2.6621                 5.6165
 Frc consts  --      0.3034                 0.2594                 0.5680
 IR Inten    --     23.3143                 6.6084                 2.5125

                     13                     14                     15
                      A                      A                      A
 Frequencies --    426.7294               449.7323               480.9995
 Red. masses --      4.4462                 3.3840                 1.1682
 Frc consts  --      0.4770                 0.4033                 0.1592
 IR Inten    --     14.6014                 0.9804               144.5992

                     16                     17                     18
                      A                      A                      A
 Frequencies --    500.1856               573.9024               582.7579
 Red. masses --      5.6508                 1.3132                 4.4225
 Frc consts  --      0.8330                 0.2548                 0.8849
 IR Inten    --     13.7230                17.4550                22.7390

                     19                     20                     21
                      A                      A                      A
 Frequencies --    645.9657               664.4737               728.3438
 Red. masses --      6.9971                 3.8530                 3.3748
 Frc consts  --      1.7202                 1.0023                 1.0548
 IR Inten    --      1.2006                88.9606                78.0654

                     22                     23                     24
                      A                      A                      A
 Frequencies --    755.3634               800.9357               858.9116
 Red. masses --      5.9147                 3.9326                 5.2220
 Frc consts  --      1.9884                 1.4864                 2.2698
 IR Inten    --     12.6316                10.8506                10.5324

                     25                     26                     27
                      A                      A                      A
 Frequencies --    871.6240               901.4872               989.9514
 Red. masses --      1.5567                 1.5322                 1.4489
 Frc consts  --      0.6968                 0.7336                 0.8366
 IR Inten    --      4.0551                 7.2451               114.0949

                     28                     29                     30
                      A                      A                      A
 Frequencies --   1000.2439              1024.0144              1031.7011
 Red. masses --      1.3615                 4.4323                 1.4805
 Frc consts  --      0.8026                 2.7384                 0.9284
 IR Inten    --      2.4646                34.3957                59.8896

                     31                     32                     33
                      A                      A                      A
 Frequencies --   1033.2665              1048.1046              1133.1520
 Red. masses --      1.5111                 2.8731                 2.0489
 Frc consts  --      0.9505                 1.8595                 1.5500
 IR Inten    --     87.2268                13.0015                19.3518

                     34                     35                     36
                      A                      A                      A
 Frequencies --   1137.8333              1166.9411              1189.2060
 Red. masses --      1.7365                 2.7772                 1.2861
 Frc consts  --      1.3246                 2.2282                 1.0716
 IR Inten    --     42.8115                81.3494                 1.1017

                     37                     38                     39
                      A                      A                      A
 Frequencies --   1215.5767              1233.3111              1311.6094
 Red. masses --      1.1724                 1.7302                 4.9476
 Frc consts  --      1.0207                 1.5505                 5.0148
 IR Inten    --     29.4232                42.5809               103.0833

                     40                     41                     42
                      A                      A                      A
 Frequencies --   1331.6258              1340.3201              1391.0320
 Red. masses --      3.0549                 1.7347                 4.7432
 Frc consts  --      3.1917                 1.8360                 5.4075
 IR Inten    --    576.6391                91.7032               390.8197

                     43                     44                     45
                      A                      A                      A
 Frequencies --   1413.7081              1451.4421              1486.8552
 Red. masses --      3.9758                 4.5617                 1.2282
 Frc consts  --      4.6816                 5.6620                 1.5998
 IR Inten    --     88.7806               239.4386                29.7745

                     46                     47                     48
                      A                      A                      A
 Frequencies --   1496.6949              1510.7640              1558.1878
 Red. masses --      1.0413                 1.0476                 2.7199
 Frc consts  --      1.3744                 1.4087                 3.8909
 IR Inten    --     11.0399                11.3098                52.5500

                     49                     50                     51
                      A                      A                      A
 Frequencies --   1638.2713              1686.5893              1840.9764
 Red. masses --      7.1439                 6.1683                12.0167
 Frc consts  --     11.2969                10.3380                23.9956
 IR Inten    --      9.5833                 2.8515               310.8349

                     52                     53                     54
                      A                      A                      A
 Frequencies --   3084.6686              3161.0348              3172.9394
 Red. masses --      1.0307                 1.1069                 1.0894
 Frc consts  --      5.7782                 6.5166                 6.4617
 IR Inten    --     29.5806                13.3091                21.2972

                     55                     56                     57
                      A                      A                      A
 Frequencies --   3197.4083              3213.2081              3228.7995
 Red. masses --      1.1065                 1.0891                 1.0952
 Frc consts  --      6.6651                 6.6249                 6.7270
 IR Inten    --     10.3852                 0.7785                 0.5830

                     58                     59                     60
                      A                      A                      A
 Frequencies --   3238.0712              3907.3088              3949.2200
 Red. masses --      1.0932                 1.0653                 1.0661
 Frc consts  --      6.7533                 9.5824                 9.7961
 IR Inten    --      0.7682               120.2434                56.1048

 - Thermochemistry -
 -------------------
 Temperature   298.150 Kelvin.  Pressure   1.00000 Atm.
 Atom     1 has atomic number  8 and mass  15.99491

 Molecular mass:   180.05939 amu.
 Principal axes and moments of inertia in atomic units:
                           1         2         3
     Eigenvalues --   690.012725294.728075969.70762
           X            0.91837   0.36579  -0.15098
           Y           -0.25796   0.84270   0.47256
           Z            0.30010  -0.39504   0.86827
 This molecule is an asymmetric top.
 Rotational symmetry number  1.
 Warning -- assumption of classical behavior for rotation
           may cause significant error
 Rotational temperatures (Kelvin)      0.12553     0.01636     0.01451
 Rotational constants (GHZ):           2.61552     0.34086     0.30232
 Zero-point vibrational energy     445566.5 (Joules/Mol)
                                  106.49295 (Kcal/Mol)
 Warning -- explicit consideration of  18 degrees of freedom as
           vibrations may cause significant error
 Vibrational temperatures:     39.33    76.52   100.41   161.11   199.36
          (Kelvin)            249.77   282.16   354.79   376.65   485.63
                              585.13   596.09   613.97   647.06   692.05
                              719.66   825.72   838.46   929.40   956.03
                             1047.92  1086.80  1152.37  1235.78  1254.07
                             1297.04  1424.32  1439.13  1473.33  1484.39
                             1486.64  1507.99  1630.35  1637.09  1678.97
                             1711.00  1748.94  1774.46  1887.11  1915.91
                             1928.42  2001.38  2034.01  2088.30  2139.25
                             2153.41  2173.65  2241.88  2357.11  2426.63
                             2648.75  4438.15  4548.02  4565.15  4600.36
                             4623.09  4645.52  4658.86  5621.75  5682.05

 Zero-point correction=                           0.169707 (Hartree/Particle)
 Thermal correction to Energy=                    0.181985
 Thermal correction to Enthalpy=                  0.182929
 Thermal correction to Gibbs Free Energy=         0.129812
 Sum of electronic and zero-point Energies=           -635.918288
 Sum of electronic and thermal Energies=              -635.906010
 Sum of electronic and thermal Enthalpies=            -635.905066
 Sum of electronic and thermal Free Energies=         -635.958183

                     E (Thermal)             CV                S
                      KCal/Mol        Cal/Mol-Kelvin    Cal/Mol-Kelvin
 Total                  114.197             45.076            111.794
 Electronic               0.000              0.000              0.000
 Translational            0.889              2.981             41.471
 Rotational               0.889              2.981             31.456
 Vibrational            112.420             39.114             38.866
 Vibration     1          0.593              1.984              6.014
 Vibration     2          0.596              1.976              4.695
 Vibration     3          0.598              1.969              4.159
 Vibration     4          0.607              1.940              3.234
 Vibration     5          0.614              1.915              2.824
 Vibration     6          0.627              1.875              2.396
 Vibration     7          0.636              1.845              2.169
 Vibration     8          0.661              1.768              1.755
 Vibration     9          0.669              1.743              1.650
 Vibration    10          0.718              1.601              1.224
 Vibration    11          0.771              1.456              0.938
 Vibration    12          0.778              1.439              0.912
 Vibration    13          0.788              1.412              0.869
 Vibration    14          0.809              1.361              0.797
 Vibration    15          0.837              1.292              0.707
 Vibration    16          0.856              1.250              0.658
 Vibration    17          0.930              1.088              0.497
 Vibration    18          0.940              1.069              0.480

 Optimization completed.
    -- Stationary point found.
 Normal termination of Gaussian 16 at Wed Apr 30 05:28:33 2025.
