 Gaussian 16, Revision C.01,
 Gaussian 16:  AS64L-G16RevC.01  3-Jul-2019

 ----------------------------------------------------------------------
 # opt=(calcfc,tight) freq 6-311+g(d,p) scrf=(smd,solvent=thf) nosymm s
 cf=(qc,fermi,xqc) geom=connectivity int=ultrafine m062x
 ----------------------------------------------------------------------

 ------------------------
 4-cooch3-ph-opt-freq-thf
 ------------------------
 Symbolic Z-matrix:
 Charge =  0 Multiplicity = 2

 SCF Done:  E(UM062X) =  -459.382722476     A.U. after   18 cycles
 SCF Done:  E(UM062X) =  -459.387488535     A.U. after   15 cycles
 SCF Done:  E(UM062X) =  -459.387509327     A.U. after   12 cycles
 SCF Done:  E(UM062X) =  -459.387509407     A.U. after    9 cycles
 Optimization completed.
    -- Stationary point found.
 Normal termination of Gaussian 16 at Sun May 11 04:12:30 2025.

 ----------------------------------------------------------------------
 #N Geom=AllCheck Guess=TCheck SCRF=Check GenChk UM062X/6-311+G(d,p) Fr
 eq
 ----------------------------------------------------------------------

 Structure from the checkpoint file:  "4-cooch3-ph-opt-freq-thf.chk"
 ------------------------
 4-cooch3-ph-opt-freq-thf
 ------------------------
 Charge =  0 Multiplicity = 2

                          Input orientation:
 ---------------------------------------------------------------------
 Center     Atomic      Atomic             Coordinates (Angstroms)
 Number     Number       Type             X           Y           Z
 ---------------------------------------------------------------------
      1          6           0        6.159631    7.035612    5.158010
      2          6           0        5.078598    6.218484    5.384008
      3          1           0        5.168111    5.264762    5.891079
      4          6           0        3.840668    6.674329    4.927046
      5          1           0        2.952657    6.073054    5.077384
      6          6           0        3.748988    7.907711    4.276638
      7          6           0        4.885237    8.695107    4.075959
      8          1           0        4.788352    9.647948    3.568626
      9          6           0        6.130323    8.255414    4.525279
     10          1           0        7.021252    8.854467    4.376667
     11          6           0        2.444610    8.431246    3.775604
     12          8           0        1.430628    7.595580    4.010370
     13          6           0        0.142210    8.033343    3.561132
     14          1           0       -0.548675    7.238584    3.830881
     15          1           0       -0.136262    8.963076    4.057888
     16          1           0        0.147336    8.181489    2.481027
     17          8           0        2.310634    9.492968    3.218128
 ---------------------------------------------------------------------

 SCF Done:  E(UM062X) =  -459.387509407     A.U. after    1 cycles

 Alpha  occ. eigenvalues --  -19.67311 -19.61769 -10.68082 -10.58527 -10.57988
 Alpha  occ. eigenvalues --  -10.56569 -10.56352 -10.56240 -10.55846 -10.55839
 Alpha  occ. eigenvalues --   -1.24446  -1.14809  -0.98569  -0.88111  -0.86373
 Alpha  occ. eigenvalues --   -0.81788  -0.71352  -0.70584  -0.65331  -0.62677
 Alpha  occ. eigenvalues --   -0.57195  -0.57163  -0.53555  -0.53312  -0.52874
 Alpha  occ. eigenvalues --   -0.50760  -0.48227  -0.47559  -0.45027  -0.43494
 Alpha  occ. eigenvalues --   -0.42090  -0.38050  -0.36548  -0.32961  -0.32386
 Alpha  occ. eigenvalues --   -0.31327
 Alpha virt. eigenvalues --   -0.02343   0.00554   0.01479   0.02912   0.03290
 Alpha virt. eigenvalues --    0.04431   0.04720   0.05137   0.06091   0.06932
 Alpha virt. eigenvalues --    0.07296   0.07628   0.08763   0.09101   0.09303

  Beta  occ. eigenvalues --  -19.67313 -19.61782 -10.68076 -10.58527 -10.57009
  Beta  occ. eigenvalues --  -10.56598 -10.56272 -10.56159 -10.55852 -10.55844
  Beta  occ. eigenvalues --   -1.24459  -1.14836  -0.97799  -0.87220  -0.85941
  Beta  occ. eigenvalues --   -0.81272  -0.70365  -0.69782  -0.65049  -0.62407
  Beta  occ. eigenvalues --   -0.57199  -0.57015  -0.52919  -0.52441  -0.51635
  Beta  occ. eigenvalues --   -0.50158  -0.48171  -0.46735  -0.44368  -0.43374
  Beta  occ. eigenvalues --   -0.41686  -0.38120  -0.36449  -0.32456  -0.31650
  Beta virt. eigenvalues --   -0.05554  -0.01434   0.00533   0.01460   0.03008
  Beta virt. eigenvalues --    0.03343   0.04427   0.04941   0.05163   0.06680
  Beta virt. eigenvalues --    0.06963   0.07361   0.07933   0.08987   0.09249

 Mulliken charges and spin densities:
               1          2
     1  C    0.288386   0.824798
     2  C   -0.522350   0.069216
     3  H    0.209004   0.017150
     4  C   -0.126698  -0.000371
     5  H    0.209921   0.004297
     6  C    0.516705  -0.007260
     7  C   -0.028678   0.000566
     8  H    0.206387   0.004353
     9  C   -0.581716   0.083726
    10  H    0.210152   0.017230
    11  C   -0.247556  -0.005109
    12  O   -0.114467  -0.001955
    13  C   -0.259604   0.000165
    14  H    0.192450   0.000015
    15  H    0.189565  -0.000091
    16  H    0.188923  -0.000086
    17  O   -0.330424  -0.006645
 Sum of Mulliken charges =   0.00000   1.00000

 Dipole moment (field-independent basis, Debye):
    X=             -1.0173    Y=             -1.7684    Z=              0.7146  Tot=              2.1617
 Quadrupole moment (field-independent basis, Debye-Ang):
   XX=            -53.9365   YY=            -86.4905   ZZ=            -54.3064
   XY=             -9.7252   XZ=             -1.6440   YZ=             -2.1658

  Exact polarizability:     152.242       0.860     125.559      13.835     -26.891      88.985
 Approx polarizability:     134.584       3.034     126.899       9.492     -26.933      88.621

                      1                      2                      3
                      A                      A                      A
 Frequencies --     48.2074               116.4176               170.5967
 Red. masses --      4.9115                 3.6288                 3.8850
 Frc consts  --      0.0067                 0.0290                 0.0666
 IR Inten    --      2.2032                 1.7524                 2.0234

                      4                      5                      6
                      A                      A                      A
 Frequencies --    184.3576               215.4874               337.0169
 Red. masses --      1.1544                 4.6946                 4.6957
 Frc consts  --      0.0231                 0.1284                 0.3142
 IR Inten    --      0.5076                 7.1072                27.3186

                      7                      8                      9
                      A                      A                      A
 Frequencies --    365.7796               402.2853               449.8091
 Red. masses --      6.0915                 2.8379                 3.7829
 Frc consts  --      0.4802                 0.2706                 0.4510
 IR Inten    --      1.1348                 0.0136                11.7028

                     10                     11                     12
                      A                      A                      A
 Frequencies --    488.0399               608.1302               672.9529
 Red. masses --      7.2633                 6.9135                 4.5244
 Frc consts  --      1.0193                 1.5064                 1.2072
 IR Inten    --      6.8646                 2.6958                 7.6023

                     13                     14                     15
                      A                      A                      A
 Frequencies --    681.6932               760.6152               840.4348
 Red. masses --      6.6641                 2.0841                 1.2485
 Frc consts  --      1.8246                 0.7104                 0.5196
 IR Inten    --     17.9509               132.6783                 0.0426

                     16                     17                     18
                      A                      A                      A
 Frequencies --    848.5815               852.1338               986.0910
 Red. masses --      5.0728                 2.4398                 1.3437
 Frc consts  --      2.1522                 1.0438                 0.7698
 IR Inten    --     11.3153                15.6830                 0.9278

                     19                     20                     21
                      A                      A                      A
 Frequencies --    994.7788              1004.1060              1023.0169
 Red. masses --      6.7918                 1.3806                 6.1581
 Frc consts  --      3.9599                 0.8201                 3.7972
 IR Inten    --      3.0956                 0.1241                18.2707

                     22                     23                     24
                      A                      A                      A
 Frequencies --   1056.7483              1106.0079              1158.9622
 Red. masses --      2.0619                 1.3249                 3.1875
 Frc consts  --      1.3566                 0.9549                 2.5225
 IR Inten    --     27.8852                18.3682                98.4910

                     25                     26                     27
                      A                      A                      A
 Frequencies --   1171.2064              1187.0668              1231.6812
 Red. masses --      1.1929                 1.2844                 1.6923
 Frc consts  --      0.9641                 1.0664                 1.5126
 IR Inten    --     33.8768                 2.0493                30.8357

                     28                     29                     30
                      A                      A                      A
 Frequencies --   1298.3570              1320.4150              1328.1856
 Red. masses --      1.3486                 5.8199                 3.9951
 Frc consts  --      1.3394                 5.9784                 4.1523
 IR Inten    --      0.0131               390.0931               378.9454

                     31                     32                     33
                      A                      A                      A
 Frequencies --   1409.7142              1485.5690              1490.8900
 Red. masses --      3.7340                 1.3727                 1.0785
 Frc consts  --      4.3721                 1.7849                 1.4124
 IR Inten    --     45.1276                45.4459                19.0433

                     34                     35                     36
                      A                      A                      A
 Frequencies --   1496.6740              1501.0517              1624.2979
 Red. masses --      1.7228                 1.1378                 5.6877
 Frc consts  --      2.2737                 1.5104                 8.8413
 IR Inten    --     26.2127                 8.1138                50.5765

                     37                     38                     39
                      A                      A                      A
 Frequencies --   1653.0019              1812.6168              3087.1327
 Red. masses --      8.0645                11.9666                 1.0310
 Frc consts  --     12.9830                23.1651                 5.7890
 IR Inten    --      7.4777               525.0021                29.4667

                     40                     41                     42
                      A                      A                      A
 Frequencies --   3167.4147              3199.8345              3210.1947
 Red. masses --      1.1079                 1.1066                 1.0883
 Frc consts  --      6.5490                 6.6756                 6.6079
 IR Inten    --     16.7085                10.3519                 0.0656

                     43                     44                     45
                      A                      A                      A
 Frequencies --   3210.5886              3224.1623              3234.6402
 Red. masses --      1.0900                 1.0956                 1.0941
 Frc consts  --      6.6200                 6.7100                 6.7445
 IR Inten    --      0.2606                 0.6714                 0.4041

 - Thermochemistry -
 -------------------
 Temperature   298.150 Kelvin.  Pressure   1.00000 Atm.
 Atom     1 has atomic number  6 and mass  12.00000

 Molecular mass:   135.04460 amu.
 Principal axes and moments of inertia in atomic units:
                           1         2         3
     Eigenvalues --   513.464972057.694252559.70253
           X            0.94043   0.30067  -0.15871
           Y           -0.20254   0.87038   0.44879
           Z            0.27308  -0.38991   0.87943
 This molecule is an asymmetric top.
 Rotational symmetry number  1.
 Warning -- assumption of classical behavior for rotation
           may cause significant error
 Rotational temperatures (Kelvin)      0.16869     0.04209     0.03384
 Rotational constants (GHZ):           3.51483     0.87707     0.70506
 Zero-point vibrational energy     345224.0 (Joules/Mol)
                                   82.51052 (Kcal/Mol)
 Warning -- explicit consideration of  11 degrees of freedom as
           vibrations may cause significant error
 Vibrational temperatures:     69.36   167.50   245.45   265.25   310.04
          (Kelvin)            484.89   526.28   578.80   647.17   702.18
                              874.96   968.23   980.80  1094.36  1209.20
                             1220.92  1226.03  1418.76  1431.26  1444.68
                             1471.89  1520.43  1591.30  1667.49  1685.10
                             1707.92  1772.11  1868.05  1899.78  1910.96
                             2028.26  2137.40  2145.06  2153.38  2159.68
                             2337.00  2378.30  2607.95  4441.70  4557.20
                             4603.85  4618.75  4619.32  4638.85  4653.93

 Zero-point correction=                           0.131489 (Hartree/Particle)
 Thermal correction to Energy=                    0.140144
 Thermal correction to Enthalpy=                  0.141088
 Thermal correction to Gibbs Free Energy=         0.096616
 Sum of electronic and zero-point Energies=           -459.256021
 Sum of electronic and thermal Energies=              -459.247366
 Sum of electronic and thermal Enthalpies=            -459.246421
 Sum of electronic and thermal Free Energies=         -459.290893

                     E (Thermal)             CV                S
                      KCal/Mol        Cal/Mol-Kelvin    Cal/Mol-Kelvin
 Total                   87.942             31.787             93.598
 Electronic               0.000              0.000              1.377
 Translational            0.889              2.981             40.614
 Rotational               0.889              2.981             29.382
 Vibrational             86.164             25.825             22.225
 Vibration     1          0.595              1.978              4.890
 Vibration     2          0.608              1.936              3.159
 Vibration     3          0.626              1.879              2.429
 Vibration     4          0.631              1.861              2.284
 Vibration     5          0.645              1.817              1.997
 Vibration     6          0.718              1.602              1.226
 Vibration     7          0.739              1.543              1.097
 Vibration     8          0.768              1.465              0.954
 Vibration     9          0.809              1.361              0.796
 Vibration    10          0.844              1.277              0.689
 Vibration    11          0.967              1.015              0.436

 Optimization completed.
    -- Stationary point found.
 Normal termination of Gaussian 16 at Sun May 11 04:15:06 2025.
