 Gaussian 16, Revision C.01,
 Gaussian 16:  AS64L-G16RevC.01  3-Jul-2019

 ----------------------------------------------------------------------
 # opt=(calcfc,tight) freq 6-311+g(d,p) scrf=(smd,solvent=thf) nosymm s
 cf=(qc,fermi,xqc) geom=connectivity int=ultrafine m062x
 ----------------------------------------------------------------------

 -------------------
 4-f-ph-opt-freq-thf
 -------------------
 Symbolic Z-matrix:
 Charge =  0 Multiplicity = 2

 SCF Done:  E(UM062X) =  -330.756442927     A.U. after   16 cycles
 SCF Done:  E(UM062X) =  -330.761063114     A.U. after   15 cycles
 SCF Done:  E(UM062X) =  -330.761082043     A.U. after   11 cycles
 SCF Done:  E(UM062X) =  -330.761082126     A.U. after    8 cycles
 Optimization completed.
    -- Stationary point found.
 Normal termination of Gaussian 16 at Mon May  5 08:14:35 2025.

 ----------------------------------------------------------------------
 #N Geom=AllCheck Guess=TCheck SCRF=Check GenChk UM062X/6-311+G(d,p) Fr
 eq
 ----------------------------------------------------------------------

 Structure from the checkpoint file:  "4-f-ph-opt-freq-thf.chk"
 -------------------
 4-f-ph-opt-freq-thf
 -------------------
 Charge =  0 Multiplicity = 2

                          Input orientation:
 ---------------------------------------------------------------------
 Center     Atomic      Atomic             Coordinates (Angstroms)
 Number     Number       Type             X           Y           Z
 ---------------------------------------------------------------------
      1          6           0        6.166985    7.016456    5.142635
      2          6           0        5.112113    6.152052    5.310579
      3          1           0        5.210472    5.213394    5.843482
      4          6           0        3.884117    6.530658    4.760891
      5          1           0        3.002817    5.906277    4.848350
      6          6           0        3.810451    7.739469    4.089340
      7          6           0        4.887744    8.595128    3.932290
      8          1           0        4.763341    9.528038    3.395223
      9          6           0        6.117260    8.219697    4.480809
     10          1           0        6.984127    8.862337    4.379279
     11          9           0        2.621627    8.103841    3.558036
 ---------------------------------------------------------------------

 SCF Done:  E(UM062X) =  -330.761082126     A.U. after    1 cycles

 Alpha  occ. eigenvalues --  -25.25814 -10.63434 -10.57432 -10.56198 -10.56193
 Alpha  occ. eigenvalues --  -10.56001 -10.55999  -1.37713  -0.98506  -0.86797
 Alpha  occ. eigenvalues --   -0.85324  -0.72235  -0.69973  -0.63718  -0.58342
 Alpha  occ. eigenvalues --   -0.57281  -0.54340  -0.52146  -0.51463  -0.49020
 Alpha  occ. eigenvalues --   -0.45275  -0.42558  -0.32629  -0.31850  -0.31538
 Alpha virt. eigenvalues --    0.00255   0.01878   0.02334   0.03355   0.03600
 Alpha virt. eigenvalues --    0.05770   0.05824   0.06638   0.08743   0.09151
 Alpha virt. eigenvalues --    0.09442   0.09482   0.11278   0.13996   0.14260

  Beta  occ. eigenvalues --  -25.25825 -10.63471 -10.56459 -10.56200 -10.56185
  Beta  occ. eigenvalues --  -10.55919 -10.55917  -1.37744  -0.97699  -0.86419
  Beta  occ. eigenvalues --   -0.83881  -0.71812  -0.68680  -0.63514  -0.57807
  Beta  occ. eigenvalues --   -0.57425  -0.52892  -0.51109  -0.50554  -0.48427
  Beta  occ. eigenvalues --   -0.44512  -0.42116  -0.32664  -0.30534
  Beta virt. eigenvalues --   -0.05666   0.00179   0.02281   0.02975   0.03459
  Beta virt. eigenvalues --    0.03775   0.05838   0.06586   0.06780   0.08748
  Beta virt. eigenvalues --    0.09430   0.09505   0.09956   0.10973   0.14078

 Mulliken charges and spin densities:
               1          2
     1  C    0.319468   0.830583
     2  C   -0.522417   0.057408
     3  H    0.213286   0.016643
     4  C    0.221955   0.020415
     5  H    0.208738   0.003299
     6  C   -0.358679  -0.025893
     7  C    0.222157   0.020359
     8  H    0.208690   0.003296
     9  C   -0.522084   0.057043
    10  H    0.213284   0.016635
    11  F   -0.204398   0.000211
 Sum of Mulliken charges =   0.00000   1.00000

 Dipole moment (field-independent basis, Debye):
    X=              0.9401    Y=             -0.2880    Z=              0.4199  Tot=              1.0691
 Quadrupole moment (field-independent basis, Debye-Ang):
   XX=            -33.3435   YY=            -38.7549   ZZ=            -38.1781
   XY=             10.2792   XZ=              3.9780   YZ=             -1.5287

  Exact polarizability:      96.455       7.380      92.460       9.009     -20.556      63.998
 Approx polarizability:      94.520       6.246      88.724       9.410     -19.522      62.352

                      1                      2                      3
                      A                      A                      A
 Frequencies --    256.1286               408.8901               412.6049
 Red. masses --      7.7761                 6.2404                 2.9070
 Frc consts  --      0.3006                 0.6147                 0.2916
 IR Inten    --      2.8110                 5.4017                 0.0125

                      4                      5                      6
                      A                      A                      A
 Frequencies --    490.0439               529.2151               607.3413
 Red. masses --      2.8392                 9.9076                 7.2040
 Frc consts  --      0.4017                 1.6349                 1.5656
 IR Inten    --     36.1066                 5.3212                 0.4820

                      7                      8                      9
                      A                      A                      A
 Frequencies --    681.3355               808.1745               818.5053
 Red. masses --      3.5609                 6.1357                 1.2462
 Frc consts  --      0.9739                 2.3612                 0.4919
 IR Inten    --      2.7055                53.7097                 1.2672

                     10                     11                     12
                      A                      A                      A
 Frequencies --    823.4743               947.0138               977.1303
 Red. masses --      1.5633                 1.3354                 1.3671
 Frc consts  --      0.6246                 0.7056                 0.7690
 IR Inten    --    129.8826                 2.2001                 0.0608

                     13                     14                     15
                      A                      A                      A
 Frequencies --   1002.7131              1049.1309              1091.3715
 Red. masses --      6.3050                 2.0000                 1.2753
 Frc consts  --      3.7350                 1.2970                 0.8950
 IR Inten    --      4.9977                14.4508                20.2211

                     16                     17                     18
                      A                      A                      A
 Frequencies --   1150.3396              1246.6355              1283.1024
 Red. masses --      1.1132                 4.5351                 1.3329
 Frc consts  --      0.8679                 4.1526                 1.2929
 IR Inten    --      9.3892               172.2392                 0.8347

                     19                     20                     21
                      A                      A                      A
 Frequencies --   1316.5681              1411.0754              1494.7606
 Red. masses --      4.9340                 3.8886                 2.6668
 Frc consts  --      5.0389                 4.5618                 3.5107
 IR Inten    --      0.0519                 0.0650               100.9431

                     22                     23                     24
                      A                      A                      A
 Frequencies --   1621.6653              1677.0142              3209.3437
 Red. masses --      6.2056                 8.2530                 1.0895
 Frc consts  --      9.6152                13.6752                 6.6119
 IR Inten    --     89.3733                 4.4760                 0.0043

                     25                     26                     27
                      A                      A                      A
 Frequencies --   3212.1390              3226.6719              3228.5956
 Red. masses --      1.0890                 1.0964                 1.0959
 Frc consts  --      6.6200                 6.7255                 6.7305
 IR Inten    --      0.0197                 1.2612                 1.1281

 - Thermochemistry -
 -------------------
 Temperature   298.150 Kelvin.  Pressure   1.00000 Atm.
 Atom     1 has atomic number  6 and mass  12.00000

 Molecular mass:    95.02970 amu.
 Principal axes and moments of inertia in atomic units:
                           1         2         3
     Eigenvalues --   322.07480 656.47146 978.54626
           X            0.87916   0.41118  -0.24084
           Y           -0.26963   0.84596   0.46005
           Z            0.39291  -0.33952   0.85460
 This molecule is an asymmetric top.
 Rotational symmetry number  1.
 Rotational temperatures (Kelvin)      0.26892     0.13194     0.08851
 Rotational constants (GHZ):           5.60348     2.74915     1.84431
 Zero-point vibrational energy     209232.8 (Joules/Mol)
                                   50.00783 (Kcal/Mol)
 Warning -- explicit consideration of   6 degrees of freedom as
           vibrations may cause significant error
 Vibrational temperatures:    368.51   588.30   593.65   705.06   761.42
          (Kelvin)            873.83   980.29  1162.78  1177.65  1184.80
                             1362.54  1405.87  1442.68  1509.47  1570.24
                             1655.08  1793.63  1846.10  1894.25  2030.22
                             2150.63  2333.21  2412.85  4617.53  4621.55
                             4642.46  4645.23

 Zero-point correction=                           0.079693 (Hartree/Particle)
 Thermal correction to Energy=                    0.084786
 Thermal correction to Enthalpy=                  0.085730
 Thermal correction to Gibbs Free Energy=         0.050303
 Sum of electronic and zero-point Energies=           -330.681390
 Sum of electronic and thermal Energies=              -330.676296
 Sum of electronic and thermal Enthalpies=            -330.675352
 Sum of electronic and thermal Free Energies=         -330.710779

                     E (Thermal)             CV                S
                      KCal/Mol        Cal/Mol-Kelvin    Cal/Mol-Kelvin
 Total                   53.204             19.627             74.562
 Electronic               0.000              0.000              1.377
 Translational            0.889              2.981             39.566
 Rotational               0.889              2.981             26.828
 Vibrational             51.427             13.666              6.791
 Vibration     1          0.666              1.752              1.688
 Vibration     2          0.773              1.451              0.931
 Vibration     3          0.776              1.443              0.917
 Vibration     4          0.846              1.272              0.683
 Vibration     5          0.884              1.185              0.589
 Vibration     6          0.966              1.016              0.437

 Optimization completed.
    -- Stationary point found.
 Normal termination of Gaussian 16 at Mon May  5 08:15:25 2025.
