 Gaussian 16, Revision C.01,
 Gaussian 16:  AS64L-G16RevC.01  3-Jul-2019

 ----------------------------------------------------------------------
 # opt=(calcfc,tight) freq 6-311+g(d,p) nosymm scf=(qc,fermi,xqc) geom=
 connectivity int=ultrafine m062x
 ----------------------------------------------------------------------

 -------------------
 4-f-phboh2-opt-freq
 -------------------
 Symbolic Z-matrix:
 Charge =  0 Multiplicity = 1

 SCF Done:  E(RM062X) =  -507.466394433     A.U. after   14 cycles
 SCF Done:  E(RM062X) =  -507.467312040     A.U. after   11 cycles
 SCF Done:  E(RM062X) =  -507.467312445     A.U. after    9 cycles
 SCF Done:  E(RM062X) =  -507.467312448     A.U. after    8 cycles
 SCF Done:  E(RM062X) =  -507.467312448     A.U. after    7 cycles
 Optimization completed.
    -- Stationary point found.
 Normal termination of Gaussian 16 at Sat Apr 19 13:34:43 2025.

 ----------------------------------------------------------------------
 #N Geom=AllCheck Guess=TCheck SCRF=Check GenChk RM062X/6-311+G(d,p) Fr
 eq
 ----------------------------------------------------------------------

 Structure from the checkpoint file:  "4-f-phboh2-opt-freq.chk"
 -------------------
 4-f-phboh2-opt-freq
 -------------------
 Charge =  0 Multiplicity = 1

                          Input orientation:
 ---------------------------------------------------------------------
 Center     Atomic      Atomic             Coordinates (Angstroms)
 Number     Number       Type             X           Y           Z
 ---------------------------------------------------------------------
      1          8           0        8.685989    7.456609    5.540917
      2          1           0        9.498093    7.148444    5.953071
      3          6           0        6.243614    6.994317    5.173753
      4          5           0        7.639479    6.615265    5.772389
      5          8           0        7.879450    5.492628    6.517465
      6          1           0        7.110482    4.943503    6.676481
      7          6           0        5.118873    6.170561    5.289201
      8          1           0        5.181397    5.216127    5.804473
      9          6           0        3.889861    6.532061    4.750875
     10          1           0        3.013860    5.901642    4.833865
     11          6           0        3.800725    7.742786    4.086801
     12          6           0        4.882894    8.593630    3.942172
     13          1           0        4.758859    9.529324    3.411891
     14          6           0        6.099751    8.207863    4.488579
     15          1           0        6.962295    8.856361    4.386741
     16          9           0        2.618689    8.104127    3.562637
 ---------------------------------------------------------------------

 SCF Done:  E(RM062X) =  -507.467312448     A.U. after    1 cycles

 Alpha  occ. eigenvalues --  -25.25891 -19.64476 -19.63640 -10.64041 -10.56811
 Alpha  occ. eigenvalues --  -10.55986 -10.55976 -10.55709 -10.53883  -7.09067
 Alpha  occ. eigenvalues --   -1.38060  -1.17499  -1.13788  -0.97950  -0.86640
 Alpha  occ. eigenvalues --   -0.85660  -0.72312  -0.71400  -0.66208  -0.64369
 Alpha  occ. eigenvalues --   -0.62982  -0.58501  -0.57449  -0.56536  -0.52843
 Alpha  occ. eigenvalues --   -0.50981  -0.49433  -0.48673  -0.48172  -0.46212
 Alpha  occ. eigenvalues --   -0.44211  -0.41539  -0.41122  -0.40171  -0.32703
 Alpha  occ. eigenvalues --   -0.31324
 Alpha virt. eigenvalues --   -0.00748  -0.00627   0.00278   0.01306   0.02031
 Alpha virt. eigenvalues --    0.02954   0.03611   0.04259   0.04780   0.07262
 Alpha virt. eigenvalues --    0.07681   0.07910   0.08985   0.10376   0.11310

 Mulliken charges:
               1
     1  O   -0.381868
     2  H    0.309365
     3  C   -0.299097
     4  B    0.470441
     5  O   -0.371106
     6  H    0.252988
     7  C   -0.271253
     8  H    0.129020
     9  C    0.258172
    10  H    0.169109
    11  C   -0.327665
    12  C    0.274100
    13  H    0.171346
    14  C   -0.393340
    15  H    0.188674
    16  F   -0.178886
 Sum of Mulliken charges =   0.00000

 Dipole moment (field-independent basis, Debye):
    X=              0.5279    Y=             -1.3337    Z=              1.0065  Tot=              1.7522
 Quadrupole moment (field-independent basis, Debye-Ang):
   XX=            -52.9737   YY=            -71.4090   ZZ=            -48.5334
   XY=             -0.2769   XZ=              6.8901   YZ=             -2.6004

  Exact polarizability:     105.087       0.720      84.409      15.128     -18.642      64.129
 Approx polarizability:     125.982       4.605     109.785      14.727     -23.122      81.233

                      1                      2                      3
                      A                      A                      A
 Frequencies --     27.4951                99.2688               156.6845
 Red. masses --      4.5265                 7.9413                 6.1737
 Frc consts  --      0.0020                 0.0461                 0.0893
 IR Inten    --      2.9752                 0.1287                 2.7384

                      4                      5                      6
                      A                      A                      A
 Frequencies --    280.4901               309.8323               379.6222
 Red. masses --      6.2672                 7.1724                 7.4494
 Frc consts  --      0.2905                 0.4057                 0.6325
 IR Inten    --      2.0659                 4.5682                 4.2271

                      7                      8                      9
                      A                      A                      A
 Frequencies --    407.2194               453.2387               467.5890
 Red. masses --      2.3851                 4.5643                 1.3212
 Frc consts  --      0.2330                 0.5524                 0.1702
 IR Inten    --     18.8530                 5.0337               100.0992

                     10                     11                     12
                      A                      A                      A
 Frequencies --    494.4918               502.2027               561.4042
 Red. masses --      2.0596                 4.3359                 1.3682
 Frc consts  --      0.2967                 0.6443                 0.2541
 IR Inten    --     60.7150                47.6196                 3.8860

                     13                     14                     15
                      A                      A                      A
 Frequencies --    645.0640               659.0522               672.6452
 Red. masses --      7.1791                 3.7609                 5.2582
 Frc consts  --      1.7601                 0.9625                 1.4017
 IR Inten    --      0.8130               100.9878                12.7091

                     16                     17                     18
                      A                      A                      A
 Frequencies --    744.3995               843.2172               852.2808
 Red. masses --      4.9536                 1.3361                 6.5950
 Frc consts  --      1.6173                 0.5597                 2.8225
 IR Inten    --     28.2997                11.9211                21.2077

                     19                     20                     21
                      A                      A                      A
 Frequencies --    866.6647               964.3228               985.2299
 Red. masses --      1.5518                 1.3173                 1.4181
 Frc consts  --      0.6867                 0.7217                 0.8110
 IR Inten    --     37.1996                 0.4328               110.7638

                     22                     23                     24
                      A                      A                      A
 Frequencies --   1007.3705              1029.6693              1037.5284
 Red. masses --      1.3493                 1.8795                 1.9194
 Frc consts  --      0.8067                 1.1740                 1.2173
 IR Inten    --      0.1977               121.6450                30.5527

                     25                     26                     27
                      A                      A                      A
 Frequencies --   1120.4085              1131.3699              1188.5401
 Red. masses --      1.3483                 2.3847                 1.1991
 Frc consts  --      0.9972                 1.7984                 0.9980
 IR Inten    --      3.2421                61.6289                18.3924

                     28                     29                     30
                      A                      A                      A
 Frequencies --   1288.5595              1308.2452              1325.8816
 Red. masses --      3.5975                 7.1880                 1.3467
 Frc consts  --      3.5193                 7.2483                 1.3948
 IR Inten    --    105.7435                11.2258                10.8338

                     31                     32                     33
                      A                      A                      A
 Frequencies --   1389.9751              1411.8615              1453.9046
 Red. masses --      4.4605                 4.7797                 4.4439
 Frc consts  --      5.0775                 5.6136                 5.5346
 IR Inten    --    565.6352               182.6341               142.3450

                     34                     35                     36
                      A                      A                      A
 Frequencies --   1566.3474              1660.4750              1679.1318
 Red. masses --      3.0416                 7.3160                 6.3439
 Frc consts  --      4.3967                11.8848                10.5384
 IR Inten    --     14.9505                23.8923               143.4766

                     37                     38                     39
                      A                      A                      A
 Frequencies --   3175.1738              3215.3057              3233.2208
 Red. masses --      1.0894                 1.0895                 1.0956
 Frc consts  --      6.4710                 6.6362                 6.7481
 IR Inten    --     17.2701                 0.4649                 1.1551

                     40                     41                     42
                      A                      A                      A
 Frequencies --   3235.2487              3909.7501              3951.7953
 Red. masses --      1.0943                 1.0653                 1.0661
 Frc consts  --      6.7484                 9.5946                 9.8090
 IR Inten    --      0.7396               111.9469                56.3917

 - Thermochemistry -
 -------------------
 Temperature   298.150 Kelvin.  Pressure   1.00000 Atm.
 Atom     1 has atomic number  8 and mass  15.99491

 Molecular mass:   140.04449 amu.
 Principal axes and moments of inertia in atomic units:
                           1         2         3
     Eigenvalues --   489.174382485.941852974.24661
           X            0.88480   0.40249  -0.23480
           Y           -0.25807   0.84282   0.47229
           Z            0.38798  -0.35729   0.84960
 This molecule is an asymmetric top.
 Rotational symmetry number  1.
 Warning -- assumption of classical behavior for rotation
           may cause significant error
 Rotational temperatures (Kelvin)      0.17706     0.03484     0.02912
 Rotational constants (GHZ):           3.68936     0.72598     0.60679
 Zero-point vibrational energy     309187.9 (Joules/Mol)
                                   73.89768 (Kcal/Mol)
 Warning -- explicit consideration of  12 degrees of freedom as
           vibrations may cause significant error
 Vibrational temperatures:     39.56   142.83   225.43   403.56   445.78
          (Kelvin)            546.19   585.90   652.11   672.76   711.46
                              722.56   807.74   928.10   948.23   967.79
                             1071.02  1213.20  1226.24  1246.94  1387.45
                             1417.53  1449.38  1481.46  1492.77  1612.02
                             1627.79  1710.04  1853.95  1882.27  1907.65
                             1999.86  2031.35  2091.84  2253.62  2389.05
                             2415.90  4568.37  4626.11  4651.88  4654.80
                             5625.26  5685.75

 Zero-point correction=                           0.117763 (Hartree/Particle)
 Thermal correction to Energy=                    0.126462
 Thermal correction to Enthalpy=                  0.127406
 Thermal correction to Gibbs Free Energy=         0.083074
 Sum of electronic and zero-point Energies=           -507.349549
 Sum of electronic and thermal Energies=              -507.340851
 Sum of electronic and thermal Enthalpies=            -507.339907
 Sum of electronic and thermal Free Energies=         -507.384239

                     E (Thermal)             CV                S
                      KCal/Mol        Cal/Mol-Kelvin    Cal/Mol-Kelvin
 Total                   79.356             33.064             93.305
 Electronic               0.000              0.000              0.000
 Translational            0.889              2.981             40.722
 Rotational               0.889              2.981             29.671
 Vibrational             77.578             27.103             22.912
 Vibration     1          0.593              1.984              6.002
 Vibration     2          0.604              1.950              3.469
 Vibration     3          0.620              1.895              2.589
 Vibration     4          0.680              1.710              1.531
 Vibration     5          0.699              1.655              1.363
 Vibration     6          0.750              1.514              1.041
 Vibration     7          0.772              1.455              0.936
 Vibration     8          0.812              1.354              0.786
 Vibration     9          0.825              1.322              0.744
 Vibration    10          0.850              1.262              0.672
 Vibration    11          0.858              1.245              0.653
 Vibration    12          0.917              1.115              0.521

 Optimization completed.
    -- Stationary point found.
 Normal termination of Gaussian 16 at Sat Apr 19 13:35:54 2025.
