 Gaussian 16, Revision C.01,
 Gaussian 16:  AS64L-G16RevC.01  3-Jul-2019

 ----------------------------------------------------------------------
 # opt=(calcfc,tight) freq 6-311+g(d,p) scrf=(smd,solvent=thf) nosymm s
 cf=(qc,fermi,xqc) geom=connectivity int=ultrafine m062x
 ----------------------------------------------------------------------

 -------------------
 4-f-phboh2-opt-freq
 -------------------
 Symbolic Z-matrix:
 Charge =  0 Multiplicity = 1

 SCF Done:  E(RM062X) =  -507.480169047     A.U. after   13 cycles
 SCF Done:  E(RM062X) =  -507.480265194     A.U. after   10 cycles
 SCF Done:  E(RM062X) =  -507.480265256     A.U. after    8 cycles
 SCF Done:  E(RM062X) =  -507.480265257     A.U. after    6 cycles
 Optimization completed.
    -- Stationary point found.
 Normal termination of Gaussian 16 at Mon Apr 21 11:30:38 2025.

 ----------------------------------------------------------------------
 #N Geom=AllCheck Guess=TCheck SCRF=Check GenChk RM062X/6-311+G(d,p) Fr
 eq
 ----------------------------------------------------------------------

 Structure from the checkpoint file:  "4-f-phboh2-opt-freq-thf.chk"
 -------------------
 4-f-phboh2-opt-freq
 -------------------
 Charge =  0 Multiplicity = 1

                          Input orientation:
 ---------------------------------------------------------------------
 Center     Atomic      Atomic             Coordinates (Angstroms)
 Number     Number       Type             X           Y           Z
 ---------------------------------------------------------------------
      1          8           0        8.683508    7.469743    5.567089
      2          1           0        9.499959    7.157746    5.974027
      3          6           0        6.243243    6.997528    5.175798
      4          5           0        7.640158    6.615304    5.777004
      5          8           0        7.883127    5.480311    6.499991
      6          1           0        7.116507    4.914797    6.632284
      7          6           0        5.116966    6.174673    5.300442
      8          1           0        5.174614    5.225830    5.825967
      9          6           0        3.887750    6.535396    4.759553
     10          1           0        3.011366    5.905362    4.850275
     11          6           0        3.804476    7.740938    4.087153
     12          6           0        4.883672    8.592372    3.932836
     13          1           0        4.762813    9.525685    3.396270
     14          6           0        6.100481    8.207415    4.482534
     15          1           0        6.959075    8.860201    4.372213
     16          9           0        2.616596    8.101947    3.557875
 ---------------------------------------------------------------------

 SCF Done:  E(RM062X) =  -507.480265257     A.U. after    1 cycles

 Alpha  occ. eigenvalues --  -25.25989 -19.63721 -19.63137 -10.63646 -10.55950
 Alpha  occ. eigenvalues --  -10.55478 -10.55296 -10.55170 -10.53425  -7.08538
 Alpha  occ. eigenvalues --   -1.37949  -1.16742  -1.13056  -0.97458  -0.86017
 Alpha  occ. eigenvalues --   -0.85196  -0.71652  -0.70987  -0.65428  -0.63697
 Alpha  occ. eigenvalues --   -0.62423  -0.58072  -0.57481  -0.55868  -0.52024
 Alpha  occ. eigenvalues --   -0.50236  -0.49012  -0.48087  -0.47602  -0.45683
 Alpha  occ. eigenvalues --   -0.43878  -0.40886  -0.40549  -0.39518  -0.32224
 Alpha  occ. eigenvalues --   -0.31062
 Alpha virt. eigenvalues --   -0.00220   0.00053   0.00750   0.02084   0.02306
 Alpha virt. eigenvalues --    0.03117   0.04083   0.04580   0.05221   0.07685
 Alpha virt. eigenvalues --    0.07913   0.08171   0.09376   0.10799   0.11479

 Mulliken charges:
               1
     1  O   -0.413041
     2  H    0.331239
     3  C   -0.316970
     4  B    0.503327
     5  O   -0.406503
     6  H    0.282928
     7  C   -0.327951
     8  H    0.179876
     9  C    0.223609
    10  H    0.202163
    11  C   -0.264139
    12  C    0.228384
    13  H    0.202774
    14  C   -0.427937
    15  H    0.205214
    16  F   -0.202976
 Sum of Mulliken charges =   0.00000

 Dipole moment (field-independent basis, Debye):
    X=              0.5928    Y=             -1.8119    Z=              1.2386  Tot=              2.2734
 Quadrupole moment (field-independent basis, Debye-Ang):
   XX=            -52.9350   YY=            -77.1139   ZZ=            -46.3417
   XY=             -2.0443   XZ=              8.0294   YZ=             -3.8949

  Exact polarizability:     132.813       3.741     112.557      17.265     -25.308      82.836
 Approx polarizability:     125.260       4.541     109.517      14.352     -22.789      81.764

                      1                      2                      3
                      A                      A                      A
 Frequencies --     40.3533               100.8280               157.2698
 Red. masses --      4.6052                 8.1384                 6.2521
 Frc consts  --      0.0044                 0.0487                 0.0911
 IR Inten    --      4.1730                 0.1104                 3.8870

                      4                      5                      6
                      A                      A                      A
 Frequencies --    280.8710               311.2074               378.8016
 Red. masses --      6.2458                 7.3423                 7.4790
 Frc consts  --      0.2903                 0.4190                 0.6323
 IR Inten    --      2.6100                 5.5779                 6.3756

                      7                      8                      9
                      A                      A                      A
 Frequencies --    410.6728               452.3364               459.0249
 Red. masses --      2.3338                 4.5372                 1.2807
 Frc consts  --      0.2319                 0.5470                 0.1590
 IR Inten    --     35.0819                 8.9701               179.2776

                     10                     11                     12
                      A                      A                      A
 Frequencies --    490.8354               502.6675               549.4936
 Red. masses --      2.0106                 4.3349                 1.4180
 Frc consts  --      0.2854                 0.6453                 0.2523
 IR Inten    --     57.2216                67.3092                 1.4514

                     13                     14                     15
                      A                      A                      A
 Frequencies --    642.9712               647.3334               670.2910
 Red. masses --      7.2268                 4.1221                 5.2716
 Frc consts  --      1.7603                 1.0177                 1.3955
 IR Inten    --      0.4205               134.9049                18.3501

                     16                     17                     18
                      A                      A                      A
 Frequencies --    743.2185               844.4093               848.7351
 Red. masses --      4.7463                 1.6480                 3.1573
 Frc consts  --      1.5447                 0.6923                 1.3400
 IR Inten    --     29.3959                20.5588                32.1875

                     19                     20                     21
                      A                      A                      A
 Frequencies --    863.8860               974.1158               989.3628
 Red. masses --      1.6094                 1.3136                 1.4543
 Frc consts  --      0.7077                 0.7344                 0.8387
 IR Inten    --     70.0956                 0.3824               141.8340

                     22                     23                     24
                      A                      A                      A
 Frequencies --   1007.4086              1026.9468              1035.7650
 Red. masses --      1.3647                 1.9154                 1.8607
 Frc consts  --      0.8160                 1.1902                 1.1761
 IR Inten    --      0.3256               163.9684                36.6440

                     25                     26                     27
                      A                      A                      A
 Frequencies --   1117.8205              1127.9105              1183.5733
 Red. masses --      1.4123                 2.1649                 1.2353
 Frc consts  --      1.0397                 1.6227                 1.0195
 IR Inten    --      5.0025                93.8693                32.7824

                     28                     29                     30
                      A                      A                      A
 Frequencies --   1263.5206              1306.1861              1327.7799
 Red. masses --      3.3779                 7.0662                 1.3561
 Frc consts  --      3.1773                 7.1031                 1.4087
 IR Inten    --    180.9352                21.3746                28.8391

                     31                     32                     33
                      A                      A                      A
 Frequencies --   1373.1710              1393.5104              1443.8418
 Red. masses --      4.3863                 5.4417                 3.9564
 Frc consts  --      4.8730                 6.2259                 4.8595
 IR Inten    --    750.3247               293.4652               142.3544

                     34                     35                     36
                      A                      A                      A
 Frequencies --   1557.4533              1660.4831              1669.8042
 Red. masses --      2.8803                 7.2387                 6.3337
 Frc consts  --      4.1164                11.7593                10.4049
 IR Inten    --     28.0249                41.6528               194.2479

                     37                     38                     39
                      A                      A                      A
 Frequencies --   3186.1084              3213.1547              3229.0542
 Red. masses --      1.0900                 1.0898                 1.0964
 Frc consts  --      6.5195                 6.6289                 6.7352
 IR Inten    --     13.0885                 1.8814                 0.7482

                     40                     41                     42
                      A                      A                      A
 Frequencies --   3232.1000              3853.8985              3885.1703
 Red. masses --      1.0951                 1.0652                 1.0660
 Frc consts  --      6.7403                 9.3214                 9.4808
 IR Inten    --      0.4495               190.1301               131.2842

 - Thermochemistry -
 -------------------
 Temperature   298.150 Kelvin.  Pressure   1.00000 Atm.
 Atom     1 has atomic number  8 and mass  15.99491

 Molecular mass:   140.04449 amu.
 Principal axes and moments of inertia in atomic units:
                           1         2         3
     Eigenvalues --   490.386232488.443902978.59457
           X            0.88451   0.40193  -0.23684
           Y           -0.25775   0.84419   0.47000
           Z            0.38885  -0.35468   0.85030
 This molecule is an asymmetric top.
 Rotational symmetry number  1.
 Warning -- assumption of classical behavior for rotation
           may cause significant error
 Rotational temperatures (Kelvin)      0.17662     0.03481     0.02908
 Rotational constants (GHZ):           3.68024     0.72525     0.60590
 Zero-point vibrational energy     307759.4 (Joules/Mol)
                                   73.55625 (Kcal/Mol)
 Warning -- explicit consideration of  12 degrees of freedom as
           vibrations may cause significant error
 Vibrational temperatures:     58.06   145.07   226.28   404.11   447.76
          (Kelvin)            545.01   590.87   650.81   660.43   706.20
                              723.23   790.60   925.09   931.37   964.40
                             1069.33  1214.92  1221.14  1242.94  1401.54
                             1423.47  1449.44  1477.55  1490.23  1608.29
                             1622.81  1702.90  1817.92  1879.31  1910.38
                             1975.69  2004.95  2077.37  2240.83  2389.06
                             2402.48  4584.10  4623.01  4645.89  4650.27
                             5544.90  5589.89

 Zero-point correction=                           0.117219 (Hartree/Particle)
 Thermal correction to Energy=                    0.125910
 Thermal correction to Enthalpy=                  0.126854
 Thermal correction to Gibbs Free Energy=         0.082864
 Sum of electronic and zero-point Energies=           -507.363046
 Sum of electronic and thermal Energies=              -507.354355
 Sum of electronic and thermal Enthalpies=            -507.353411
 Sum of electronic and thermal Free Energies=         -507.397401

                     E (Thermal)             CV                S
                      KCal/Mol        Cal/Mol-Kelvin    Cal/Mol-Kelvin
 Total                   79.010             33.175             92.585
 Electronic               0.000              0.000              0.000
 Translational            0.889              2.981             40.722
 Rotational               0.889              2.981             29.676
 Vibrational             77.232             27.214             22.187
 Vibration     1          0.594              1.981              5.242
 Vibration     2          0.604              1.948              3.438
 Vibration     3          0.621              1.895              2.582
 Vibration     4          0.681              1.709              1.528
 Vibration     5          0.700              1.652              1.356
 Vibration     6          0.749              1.515              1.044
 Vibration     7          0.775              1.447              0.924
 Vibration     8          0.811              1.356              0.789
 Vibration     9          0.817              1.341              0.769
 Vibration    10          0.847              1.270              0.681
 Vibration    11          0.858              1.244              0.651
 Vibration    12          0.905              1.141              0.545

 Optimization completed.
    -- Stationary point found.
 Normal termination of Gaussian 16 at Mon Apr 21 11:31:52 2025.
