 Gaussian 16, Revision C.01,
 Gaussian 16:  AS64L-G16RevC.01  3-Jul-2019

 ----------------------------------------------------------------------
 # opt=(calcfc,tight) freq 6-311+g(d,p) scrf=(smd,solvent=thf) nosymm s
 cf=(qc,fermi,xqc) geom=connectivity int=ultrafine m062x
 ----------------------------------------------------------------------

 -------------------------
 4-f-ph-anion-opt-freq-thf
 -------------------------
 Symbolic Z-matrix:
 Charge = -1 Multiplicity = 1

 SCF Done:  E(RM062X) =  -330.874513761     A.U. after   15 cycles
 SCF Done:  E(RM062X) =  -330.887897683     A.U. after   13 cycles
 SCF Done:  E(RM062X) =  -330.888228835     A.U. after   12 cycles
 SCF Done:  E(RM062X) =  -330.888230463     A.U. after    9 cycles
 SCF Done:  E(RM062X) =  -330.888230476     A.U. after    7 cycles
 SCF Done:  E(RM062X) =  -330.888230476     A.U. after    5 cycles
 Optimization completed.
    -- Stationary point found.
 Normal termination of Gaussian 16 at Tue May 27 04:21:44 2025.

 ----------------------------------------------------------------------
 #N Geom=AllCheck Guess=TCheck SCRF=Check GenChk RM062X/6-311+G(d,p) Fr
 eq
 ----------------------------------------------------------------------

 Structure from the checkpoint file:  "4-f-ph-anion-opt-freq-thf.chk"
 -------------------------
 4-f-ph-anion-opt-freq-thf
 -------------------------
 Charge = -1 Multiplicity = 1

                          Input orientation:
 ---------------------------------------------------------------------
 Center     Atomic      Atomic             Coordinates (Angstroms)
 Number     Number       Type             X           Y           Z
 ---------------------------------------------------------------------
      1          6           0        6.305936    6.973491    5.203648
      2          6           0        5.131924    6.190406    5.295317
      3          1           0        5.164183    5.234155    5.818748
      4          6           0        3.886580    6.543005    4.755341
      5          1           0        3.010137    5.908983    4.850389
      6          6           0        3.793865    7.744471    4.081766
      7          6           0        4.879001    8.585176    3.936299
      8          1           0        4.767087    9.522249    3.399180
      9          6           0        6.099188    8.181126    4.497442
     10          1           0        6.932161    8.871495    4.359756
     11          9           0        2.590991    8.112790    3.543028
 ---------------------------------------------------------------------

 SCF Done:  E(RM062X) =  -330.888230476     A.U. after    1 cycles

 Alpha  occ. eigenvalues --  -25.22491 -10.58743 -10.50906 -10.50904 -10.49774
 Alpha  occ. eigenvalues --  -10.49773 -10.45062  -1.33913  -0.91786  -0.80599
 Alpha  occ. eigenvalues --   -0.78369  -0.65867  -0.64499  -0.58802  -0.53851
 Alpha  occ. eigenvalues --   -0.52847  -0.49173  -0.45023  -0.44995  -0.43662
 Alpha  occ. eigenvalues --   -0.39171  -0.34687  -0.27418  -0.25112  -0.20004
 Alpha virt. eigenvalues --    0.04130   0.04851   0.05194   0.05610   0.06891
 Alpha virt. eigenvalues --    0.07599   0.08442   0.08882   0.10568   0.11583
 Alpha virt. eigenvalues --    0.11987   0.12005   0.13266   0.16662   0.16808

 Mulliken charges:
               1
     1  C   -1.076240
     2  C   -0.045027
     3  H    0.154960
     4  C   -0.008779
     5  H    0.176701
     6  C   -0.238632
     7  C   -0.008005
     8  H    0.176631
     9  C   -0.043690
    10  H    0.155036
    11  F   -0.242954
 Sum of Mulliken charges =  -1.00000

 Dipole moment (field-independent basis, Debye):
    X=            -28.5818    Y=            -34.0195    Z=            -24.2322  Tot=             50.6107
 Quadrupole moment (field-independent basis, Debye-Ang):
   XX=           -228.0886   YY=           -284.1951   ZZ=           -171.1360
   XY=           -196.2415   XZ=           -150.5317   YZ=           -172.1049

  Exact polarizability:     129.405       2.330     111.102      15.799     -22.031      85.109
 Approx polarizability:     113.139       4.133     102.062      11.778     -19.594      77.303

                      1                      2                      3
                      A                      A                      A
 Frequencies --    236.0068               381.8235               399.1516
 Red. masses --      8.5834                 2.7069                 6.4069
 Frc consts  --      0.2817                 0.2325                 0.6014
 IR Inten    --     28.5822                 0.0170                10.9430

                      4                      5                      6
                      A                      A                      A
 Frequencies --    500.6582               514.2980               637.5760
 Red. masses --      3.1306                 9.7264                 7.2398
 Frc consts  --      0.4623                 1.5158                 1.7340
 IR Inten    --     36.7907                 3.4333                 0.2768

                      7                      8                      9
                      A                      A                      A
 Frequencies --    703.7291               806.6206               819.9091
 Red. masses --      3.3008                 7.1822                 1.5777
 Frc consts  --      0.9631                 2.7533                 0.6249
 IR Inten    --      2.4431                69.2421                72.4008

                     10                     11                     12
                      A                      A                      A
 Frequencies --    844.0829               962.3086               990.1212
 Red. masses --      1.2518                 1.2832                 5.0830
 Frc consts  --      0.5255                 0.7001                 2.9359
 IR Inten    --      0.0679                 4.3721                 1.0292

                     13                     14                     15
                      A                      A                      A
 Frequencies --    991.8084              1037.2498              1077.2302
 Red. masses --      1.5106                 2.2088                 1.4425
 Frc consts  --      0.8755                 1.4001                 0.9863
 IR Inten    --      0.0850                34.9914                 6.4986

                     16                     17                     18
                      A                      A                      A
 Frequencies --   1173.7934              1229.2191              1243.0730
 Red. masses --      1.3678                 2.7031                 9.7976
 Frc consts  --      1.1103                 2.4065                 8.9200
 IR Inten    --     55.0769               139.8819                46.8029

                     19                     20                     21
                      A                      A                      A
 Frequencies --   1326.1199              1383.4294              1490.5136
 Red. masses --      1.2569                 2.5626                 2.2231
 Frc consts  --      1.3023                 2.8896                 2.9099
 IR Inten    --      0.2486                 0.1619                35.8774

                     22                     23                     24
                      A                      A                      A
 Frequencies --   1605.6892              1634.9848              3113.8783
 Red. masses --      5.7913                 7.1447                 1.0870
 Frc consts  --      8.7972                11.2529                 6.2096
 IR Inten    --    111.9991                34.6140                73.4217

                     25                     26                     27
                      A                      A                      A
 Frequencies --   3116.7706              3191.1432              3194.2308
 Red. masses --      1.0869                 1.0933                 1.0933
 Frc consts  --      6.2210                 6.5598                 6.5723
 IR Inten    --     53.6306                20.6191                20.6730

 - Thermochemistry -
 -------------------
 Temperature   298.150 Kelvin.  Pressure   1.00000 Atm.
 Atom     1 has atomic number  6 and mass  12.00000

 Molecular mass:    95.02970 amu.
 Principal axes and moments of inertia in atomic units:
                           1         2         3
     Eigenvalues --   309.53475 693.386181002.92051
           X            0.87911   0.41114  -0.24111
           Y           -0.26956   0.84607   0.45990
           Z            0.39308  -0.33931   0.85461
 This molecule is an asymmetric top.
 Rotational symmetry number  1.
 Rotational temperatures (Kelvin)      0.27982     0.12491     0.08636
 Rotational constants (GHZ):           5.83050     2.60279     1.79949
 Zero-point vibrational energy     206986.4 (Joules/Mol)
                                   49.47093 (Kcal/Mol)
 Warning -- explicit consideration of   5 degrees of freedom as
           vibrations may cause significant error
 Vibrational temperatures:    339.56   549.36   574.29   720.34   739.96
          (Kelvin)            917.33  1012.51  1160.55  1179.67  1214.45
                             1384.55  1424.56  1426.99  1492.37  1549.89
                             1688.83  1768.57  1788.50  1907.99  1990.45
                             2144.52  2310.23  2352.38  4480.18  4484.34
                             4591.34  4595.79

 Zero-point correction=                           0.078837 (Hartree/Particle)
 Thermal correction to Energy=                    0.083973
 Thermal correction to Enthalpy=                  0.084917
 Thermal correction to Gibbs Free Energy=         0.050023
 Sum of electronic and zero-point Energies=           -330.809394
 Sum of electronic and thermal Energies=              -330.804257
 Sum of electronic and thermal Enthalpies=            -330.803313
 Sum of electronic and thermal Free Energies=         -330.838208

                     E (Thermal)             CV                S
                      KCal/Mol        Cal/Mol-Kelvin    Cal/Mol-Kelvin
 Total                   52.694             19.654             73.442
 Electronic               0.000              0.000              0.000
 Translational            0.889              2.981             39.566
 Rotational               0.889              2.981             26.867
 Vibrational             50.917             13.692              7.009
 Vibration     1          0.655              1.786              1.833
 Vibration     2          0.751              1.509              1.032
 Vibration     3          0.765              1.472              0.966
 Vibration     4          0.856              1.249              0.656
 Vibration     5          0.869              1.218              0.623

 Optimization completed.
    -- Stationary point found.
 Normal termination of Gaussian 16 at Tue May 27 04:22:14 2025.
