 Gaussian 16, Revision C.01,
 Gaussian 16:  AS64L-G16RevC.01  3-Jul-2019

 ----------------------------------------------------------------------
 # opt=(calcfc,tight) freq 6-311+g(d,p) scrf=(smd,solvent=thf) nosymm s
 cf=(qc,fermi,xqc) geom=connectivity int=ultrafine m062x
 ----------------------------------------------------------------------

 -----------------------------
 4-isopropyl-ph-opt-freq-thf-2
 -----------------------------
 Symbolic Z-matrix:
 Charge =  0 Multiplicity = 2

 SCF Done:  E(UM062X) =  -349.432219833     A.U. after   17 cycles
 SCF Done:  E(UM062X) =  -349.436950790     A.U. after   15 cycles
 SCF Done:  E(UM062X) =  -349.436971582     A.U. after   12 cycles
 SCF Done:  E(UM062X) =  -349.436971676     A.U. after    9 cycles
 SCF Done:  E(UM062X) =  -349.436971677     A.U. after    6 cycles
 Optimization completed.
    -- Stationary point found.
 Normal termination of Gaussian 16 at Tue May  6 17:48:40 2025.

 ----------------------------------------------------------------------
 #N Geom=AllCheck Guess=TCheck SCRF=Check GenChk UM062X/6-311+G(d,p) Fr
 eq
 ----------------------------------------------------------------------

 Structure from the checkpoint file:  "4-isopropyl-ph-opt-freq-thf-2.chk"
 -----------------------------
 4-isopropyl-ph-opt-freq-thf-2
 -----------------------------
 Charge =  0 Multiplicity = 2

                          Input orientation:
 ---------------------------------------------------------------------
 Center     Atomic      Atomic             Coordinates (Angstroms)
 Number     Number       Type             X           Y           Z
 ---------------------------------------------------------------------
      1          6           0        6.187604    6.987667    5.125039
      2          6           0        5.075409    6.286099    5.516344
      3          1           0        5.122205    5.478712    6.238903
      4          6           0        3.856935    6.660486    4.936186
      5          1           0        2.949786    6.133331    5.216376
      6          6           0        3.787546    7.698776    4.005001
      7          6           0        4.963994    8.371185    3.652443
      8          1           0        4.927433    9.180706    2.929544
      9          6           0        6.193075    8.019032    4.215655
     10          1           0        7.101609    8.542886    3.939597
     11          6           0        2.460234    8.089038    3.381500
     12          1           0        1.694336    7.444962    3.824336
     13          6           0        2.100188    9.544356    3.696206
     14          1           0        2.826754   10.230031    3.250578
     15          1           0        1.115335    9.789581    3.289841
     16          1           0        2.081314    9.723837    4.773962
     17          6           0        2.467106    7.850093    1.868090
     18          1           0        2.703246    6.809452    1.632568
     19          1           0        1.489082    8.085833    1.440031
     20          1           0        3.210545    8.485987    1.378434
 ---------------------------------------------------------------------

 SCF Done:  E(UM062X) =  -349.436971677     A.U. after    1 cycles

 Alpha  occ. eigenvalues --  -10.56521 -10.54927 -10.54876 -10.54817 -10.54641
 Alpha  occ. eigenvalues --  -10.54622 -10.54067 -10.51815 -10.51806  -0.97394
 Alpha  occ. eigenvalues --   -0.90293  -0.85032  -0.82270  -0.76935  -0.70251
 Alpha  occ. eigenvalues --   -0.68920  -0.64265  -0.57207  -0.53686  -0.52221
 Alpha  occ. eigenvalues --   -0.50259  -0.49099  -0.48456  -0.47900  -0.44705
 Alpha  occ. eigenvalues --   -0.43516  -0.41770  -0.39595  -0.39239  -0.38162
 Alpha  occ. eigenvalues --   -0.31318  -0.30598  -0.30212
 Alpha virt. eigenvalues --    0.01257   0.01772   0.02035   0.03082   0.03214
 Alpha virt. eigenvalues --    0.04126   0.05165   0.05519   0.05955   0.06862
 Alpha virt. eigenvalues --    0.07700   0.07797   0.08225   0.08513   0.10341

  Beta  occ. eigenvalues --  -10.55568 -10.54928 -10.54878 -10.54843 -10.54562
  Beta  occ. eigenvalues --  -10.54547 -10.54061 -10.51818 -10.51808  -0.96704
  Beta  occ. eigenvalues --   -0.89799  -0.84612  -0.81180  -0.76946  -0.69648
  Beta  occ. eigenvalues --   -0.67951  -0.63944  -0.56194  -0.52905  -0.51494
  Beta  occ. eigenvalues --   -0.49875  -0.48466  -0.47872  -0.47668  -0.44581
  Beta  occ. eigenvalues --   -0.42972  -0.41306  -0.39489  -0.38657  -0.38081
  Beta  occ. eigenvalues --   -0.31352  -0.29366
  Beta virt. eigenvalues --   -0.04955   0.01215   0.01732   0.03085   0.03127
  Beta virt. eigenvalues --    0.03313   0.04127   0.05195   0.05549   0.06567
  Beta virt. eigenvalues --    0.06693   0.07745   0.07818   0.08512   0.08888

 Mulliken charges and spin densities:
               1          2
     1  C    0.312823   0.813281
     2  C   -0.564863   0.096197
     3  H    0.201806   0.017253
     4  C   -0.271975   0.016951
     5  H    0.187372   0.004903
     6  C    0.099376  -0.001308
     7  C    0.050683  -0.019214
     8  H    0.192143   0.005178
     9  C   -0.478878   0.054674
    10  H    0.201826   0.016589
    11  C    0.115287  -0.006700
    12  H    0.175937   0.000054
    13  C   -0.641552   0.001306
    14  H    0.178640  -0.000172
    15  H    0.175405  -0.000346
    16  H    0.179515   0.000138
    17  C   -0.647628   0.001597
    18  H    0.178693   0.000156
    19  H    0.175053  -0.000363
    20  H    0.180338  -0.000173
 Sum of Mulliken charges =   0.00000   1.00000

 Dipole moment (field-independent basis, Debye):
    X=             -1.5447    Y=              0.4572    Z=             -0.7272  Tot=              1.7675
 Quadrupole moment (field-independent basis, Debye-Ang):
   XX=            -66.8697   YY=            -47.1794   ZZ=            -62.1625
   XY=             -7.1321   XZ=            -10.6695   YZ=             -8.0713

  Exact polarizability:     153.093       0.076     128.117      11.452     -26.213     123.878
 Approx polarizability:     140.150       4.280     120.536       6.267     -24.710     114.717

                      1                      2                      3
                      A                      A                      A
 Frequencies --     53.4617               133.9638               224.3284
 Red. masses --      2.9678                 3.2719                 2.0244
 Frc consts  --      0.0050                 0.0346                 0.0600
 IR Inten    --      0.0008                 0.1513                 0.1862

                      4                      5                      6
                      A                      A                      A
 Frequencies --    242.7013               278.4938               311.4775
 Red. masses --      1.2002                 1.1228                 2.6824
 Frc consts  --      0.0417                 0.0513                 0.1533
 IR Inten    --      0.0719                 0.1059                 0.1067

                      7                      8                      9
                      A                      A                      A
 Frequencies --    337.1039               405.0376               470.0421
 Red. masses --      3.7674                 2.8542                 2.9116
 Frc consts  --      0.2522                 0.2759                 0.3790
 IR Inten    --      1.2272                 0.0138                 0.5468

                     10                     11                     12
                      A                      A                      A
 Frequencies --    527.7759               567.6525               611.8431
 Red. masses --      2.8649                 3.1347                 6.8609
 Frc consts  --      0.4702                 0.5951                 1.5132
 IR Inten    --     45.1697                 1.2659                 0.5204

                     13                     14                     15
                      A                      A                      A
 Frequencies --    720.7669               747.9031               825.5686
 Red. masses --      2.9735                 3.6659                 1.5377
 Frc consts  --      0.9101                 1.2081                 0.6175
 IR Inten    --     15.3924                 5.1569                84.5276

                     16                     17                     18
                      A                      A                      A
 Frequencies --    840.3753               916.0830               933.3692
 Red. masses --      1.2571                 2.3919                 1.1409
 Frc consts  --      0.5231                 1.1827                 0.5856
 IR Inten    --      2.7794                 1.1391                 1.9776

                     19                     20                     21
                      A                      A                      A
 Frequencies --    970.6488               972.6484               995.4017
 Red. masses --      1.3222                 1.5131                 1.8294
 Frc consts  --      0.7340                 0.8434                 1.0680
 IR Inten    --      1.6242                 0.0231                 0.2252

                     22                     23                     24
                      A                      A                      A
 Frequencies --    996.0105              1060.0949              1072.5503
 Red. masses --      2.9159                 2.2788                 1.4920
 Frc consts  --      1.7043                 1.5088                 1.0112
 IR Inten    --      0.4595                35.3685                 7.7167

                     25                     26                     27
                      A                      A                      A
 Frequencies --   1106.1295              1140.1961              1169.4761
 Red. masses --      1.3965                 2.2589                 1.9321
 Frc consts  --      1.0067                 1.7302                 1.5569
 IR Inten    --     14.4359                 1.9664                 0.3484

                     28                     29                     30
                      A                      A                      A
 Frequencies --   1177.9483              1240.9058              1291.8581
 Red. masses --      1.1444                 1.9672                 2.2195
 Frc consts  --      0.9356                 1.7848                 2.1824
 IR Inten    --      0.9014                 0.9311                 3.6356

                     31                     32                     33
                      A                      A                      A
 Frequencies --   1316.2443              1338.4796              1353.1679
 Red. masses --      2.0984                 1.3769                 1.9638
 Frc consts  --      2.1420                 1.4533                 2.1186
 IR Inten    --      0.0458                 0.8689                 7.4501

                     34                     35                     36
                      A                      A                      A
 Frequencies --   1396.1454              1412.3679              1427.4022
 Red. masses --      1.2705                 1.2776                 2.0525
 Frc consts  --      1.4591                 1.5016                 2.4640
 IR Inten    --     12.1455                 2.8660                10.1063

                     37                     38                     39
                      A                      A                      A
 Frequencies --   1478.2716              1484.4758              1491.7646
 Red. masses --      1.0451                 1.0512                 1.5383
 Frc consts  --      1.3456                 1.3648                 2.0169
 IR Inten    --      0.2781                 5.0994                 5.7132

                     40                     41                     42
                      A                      A                      A
 Frequencies --   1494.6519              1501.7588              1621.9403
 Red. masses --      1.0559                 1.4415                 5.7038
 Frc consts  --      1.3898                 1.9154                 8.8407
 IR Inten    --     13.3601                29.1153                 3.3253

                     43                     44                     45
                      A                      A                      A
 Frequencies --   1650.9960              3051.0725              3053.4892
 Red. masses --      7.3816                 1.0348                 1.0361
 Frc consts  --     11.8548                 5.6759                 5.6915
 IR Inten    --      1.2766                33.5096                25.5052

                     46                     47                     48
                      A                      A                      A
 Frequencies --   3067.4594              3122.8124              3127.1628
 Red. masses --      1.0845                 1.1030                 1.1019
 Frc consts  --      6.0121                 6.3374                 6.3487
 IR Inten    --     20.1284                 1.6392                87.9970

                     49                     50                     51
                      A                      A                      A
 Frequencies --   3130.1968              3131.0037              3185.0289
 Red. masses --      1.1035                 1.1031                 1.0892
 Frc consts  --      6.3703                 6.3715                 6.5099
 IR Inten    --     24.1418                44.0476                 6.4269

                     52                     53                     54
                      A                      A                      A
 Frequencies --   3190.8277              3205.5085              3207.7232
 Red. masses --      1.0874                 1.0936                 1.0951
 Frc consts  --      6.5230                 6.6207                 6.6388
 IR Inten    --      3.3636                 4.0558                 0.0673

 - Thermochemistry -
 -------------------
 Temperature   298.150 Kelvin.  Pressure   1.00000 Atm.
 Atom     1 has atomic number  6 and mass  12.00000

 Molecular mass:   119.08608 amu.
 Principal axes and moments of inertia in atomic units:
                           1         2         3
     Eigenvalues --   540.071341597.302461750.89064
           X            0.79122   0.58756  -0.16951
           Y           -0.36540   0.67651   0.63939
           Z            0.49036  -0.44396   0.74996
 This molecule is an asymmetric top.
 Rotational symmetry number  1.
 Warning -- assumption of classical behavior for rotation
           may cause significant error
 Rotational temperatures (Kelvin)      0.16037     0.05423     0.04947
 Rotational constants (GHZ):           3.34167     1.12987     1.03076
 Zero-point vibrational energy     453275.6 (Joules/Mol)
                                  108.33548 (Kcal/Mol)
 Warning -- explicit consideration of  12 degrees of freedom as
           vibrations may cause significant error
 Vibrational temperatures:     76.92   192.74   322.76   349.19   400.69
          (Kelvin)            448.15   485.02   582.76   676.29   759.35
                              816.73   880.31  1037.02  1076.07  1187.81
                             1209.11  1318.04  1342.91  1396.55  1399.42
                             1432.16  1433.04  1525.24  1543.16  1591.47
                             1640.49  1682.62  1694.80  1785.39  1858.70
                             1893.78  1925.77  1946.91  2008.74  2032.08
                             2053.71  2126.90  2135.83  2146.32  2150.47
                             2160.70  2333.61  2375.42  4389.81  4393.29
                             4413.39  4493.03  4499.29  4503.66  4504.82
                             4582.55  4590.89  4612.01  4615.20

 Zero-point correction=                           0.172644 (Hartree/Particle)
 Thermal correction to Energy=                    0.181154
 Thermal correction to Enthalpy=                  0.182099
 Thermal correction to Gibbs Free Energy=         0.138767
 Sum of electronic and zero-point Energies=           -349.264328
 Sum of electronic and thermal Energies=              -349.255817
 Sum of electronic and thermal Enthalpies=            -349.254873
 Sum of electronic and thermal Free Energies=         -349.298204

                     E (Thermal)             CV                S
                      KCal/Mol        Cal/Mol-Kelvin    Cal/Mol-Kelvin
 Total                  113.676             32.819             91.198
 Electronic               0.000              0.000              1.377
 Translational            0.889              2.981             40.239
 Rotational               0.889              2.981             28.803
 Vibrational            111.899             26.857             20.779
 Vibration     1          0.596              1.976              4.685
 Vibration     2          0.613              1.919              2.888
 Vibration     3          0.649              1.804              1.924
 Vibration     4          0.659              1.775              1.783
 Vibration     5          0.679              1.713              1.543
 Vibration     6          0.700              1.652              1.354
 Vibration     7          0.718              1.601              1.226
 Vibration     8          0.770              1.459              0.944
 Vibration     9          0.827              1.317              0.737
 Vibration    10          0.883              1.189              0.592
 Vibration    11          0.924              1.101              0.509
 Vibration    12          0.971              1.007              0.430

 Optimization completed.
    -- Stationary point found.
 Normal termination of Gaussian 16 at Tue May  6 17:51:55 2025.
