 Gaussian 16, Revision C.01,
 Gaussian 16:  AS64L-G16RevC.01  3-Jul-2019

 ----------------------------------------------------------------------
 # opt=(calcfc,tight) freq 6-311+g(d,p) nosymm scf=(qc,fermi,xqc) geom=
 connectivity int=ultrafine m062x
 ----------------------------------------------------------------------

 ---------------------------
 4-isopropyl-phboh2-opt-freq
 ---------------------------
 Symbolic Z-matrix:
 Charge =  0 Multiplicity = 1

 SCF Done:  E(RM062X) =  -526.134611575     A.U. after   15 cycles
 SCF Done:  E(RM062X) =  -526.139223282     A.U. after   15 cycles
 SCF Done:  E(RM062X) =  -526.139247930     A.U. after   16 cycles
 SCF Done:  E(RM062X) =  -526.082253095     A.U. after   14 cycles
 SCF Done:  E(RM062X) =  -526.139697684     A.U. after   14 cycles
 SCF Done:  E(RM062X) =  -526.139760743     A.U. after   13 cycles
 SCF Done:  E(RM062X) =  -526.139791915     A.U. after   13 cycles
 SCF Done:  E(RM062X) =  -526.139920904     A.U. after   15 cycles
 SCF Done:  E(RM062X) =  -526.139859136     A.U. after   14 cycles
 SCF Done:  E(RM062X) =  -526.140007088     A.U. after   13 cycles
 SCF Done:  E(RM062X) =  -526.140070080     A.U. after   11 cycles
 SCF Done:  E(RM062X) =  -526.139962333     A.U. after   13 cycles
 SCF Done:  E(RM062X) =  -526.140091972     A.U. after   12 cycles
 SCF Done:  E(RM062X) =  -526.140215542     A.U. after   12 cycles
 SCF Done:  E(RM062X) =  -526.140223366     A.U. after   10 cycles
 SCF Done:  E(RM062X) =  -526.140223960     A.U. after    9 cycles
 SCF Done:  E(RM062X) =  -526.140224214     A.U. after    8 cycles
 SCF Done:  E(RM062X) =  -526.140224238     A.U. after    8 cycles
 SCF Done:  E(RM062X) =  -526.140224238     A.U. after    6 cycles
 Optimization completed.
    -- Stationary point found.
 Normal termination of Gaussian 16 at Mon Apr 21 18:29:04 2025.

 ----------------------------------------------------------------------
 #N Geom=AllCheck Guess=TCheck SCRF=Check GenChk RM062X/6-311+G(d,p) Fr
 eq
 ----------------------------------------------------------------------

 Structure from the checkpoint file:  "4-isopropyl-phboh2-opt-freq.chk"
 ---------------------------
 4-isopropyl-phboh2-opt-freq
 ---------------------------
 Charge =  0 Multiplicity = 1

                          Input orientation:
 ---------------------------------------------------------------------
 Center     Atomic      Atomic             Coordinates (Angstroms)
 Number     Number       Type             X           Y           Z
 ---------------------------------------------------------------------
      1          8           0        8.751942    7.294176    5.370518
      2          1           0        9.551899    6.995883    5.812474
      3          6           0        6.262910    6.975802    5.167096
      4          5           0        7.650578    6.607492    5.788487
      5          8           0        7.834447    5.633120    6.733711
      6          1           0        7.031036    5.182017    6.997362
      7          6           0        5.077431    6.325663    5.518849
      8          1           0        5.081545    5.522290    6.251623
      9          6           0        3.859373    6.679689    4.947890
     10          1           0        2.953735    6.157818    5.239751
     11          6           0        3.784768    7.700564    4.001404
     12          6           0        4.966902    8.356123    3.643044
     13          1           0        4.937364    9.154464    2.908386
     14          6           0        6.179937    8.000201    4.214443
     15          1           0        7.087427    8.518804    3.925356
     16          6           0        2.459040    8.087766    3.378198
     17          1           0        1.692562    7.441756    3.818608
     18          6           0        2.095998    9.541772    3.700199
     19          1           0        2.823708   10.229391    3.261097
     20          1           0        1.112784    9.789622    3.292906
     21          1           0        2.078367    9.713940    4.778129
     22          6           0        2.466387    7.850514    1.863778
     23          1           0        2.711685    6.812964    1.628771
     24          1           0        1.487938    8.081483    1.435598
     25          1           0        3.205930    8.490447    1.375113
 ---------------------------------------------------------------------

 SCF Done:  E(RM062X) =  -526.140224238     A.U. after    1 cycles

 Alpha  occ. eigenvalues --  -19.63701 -19.62902 -10.55306 -10.55086 -10.54944
 Alpha  occ. eigenvalues --  -10.54327 -10.54275 -10.54079 -10.52796 -10.52795
 Alpha  occ. eigenvalues --  -10.52666  -7.08181  -1.16726  -1.13005  -0.96830
 Alpha  occ. eigenvalues --   -0.90625  -0.84485  -0.82813  -0.77893  -0.71271
 Alpha  occ. eigenvalues --   -0.69056  -0.65828  -0.64311  -0.62836  -0.57496
 Alpha  occ. eigenvalues --   -0.54873  -0.52544  -0.50872  -0.49658  -0.48673
 Alpha  occ. eigenvalues --   -0.48644  -0.47818  -0.47685  -0.45439  -0.45369
 Alpha  occ. eigenvalues --   -0.42959  -0.41203  -0.40967  -0.40387  -0.40223
 Alpha  occ. eigenvalues --   -0.38538  -0.37396  -0.30934  -0.30051
 Alpha virt. eigenvalues --   -0.00250  -0.00146   0.01235   0.01624   0.01708
 Alpha virt. eigenvalues --    0.02782   0.03034   0.03347   0.04190   0.04489
 Alpha virt. eigenvalues --    0.05818   0.06149   0.07032   0.07169   0.07725

 Mulliken charges:
               1
     1  O   -0.347293
     2  H    0.299897
     3  C   -0.432389
     4  B    0.474506
     5  O   -0.341828
     6  H    0.252096
     7  C   -0.257477
     8  H    0.118990
     9  C   -0.429855
    10  H    0.146448
    11  C    0.118372
    12  C    0.291875
    13  H    0.150987
    14  C   -0.366189
    15  H    0.178697
    16  C    0.190747
    17  H    0.157250
    18  C   -0.607980
    19  H    0.169894
    20  H    0.163656
    21  H    0.172146
    22  C   -0.608469
    23  H    0.171985
    24  H    0.163563
    25  H    0.170370
 Sum of Mulliken charges =   0.00000

 Dipole moment (field-independent basis, Debye):
    X=             -1.5063    Y=             -0.5847    Z=              0.2581  Tot=              1.6363
 Quadrupole moment (field-independent basis, Debye-Ang):
   XX=            -83.9339   YY=            -79.5713   ZZ=            -69.2087
   XY=            -13.7341   XZ=             -4.2425   YZ=             -5.6810

  Exact polarizability:     150.189      -8.748     108.371      21.293     -23.090     110.625
 Approx polarizability:     171.671       2.644     139.158      10.805     -29.236     135.618

                      1                      2                      3
                      A                      A                      A
 Frequencies --     22.9573                40.2778                70.0925
 Red. masses --      4.5465                 3.1164                 3.8742
 Frc consts  --      0.0014                 0.0030                 0.0112
 IR Inten    --      3.0452                 0.1653                 0.2515

                      4                      5                      6
                      A                      A                      A
 Frequencies --    131.1243               173.3567               224.8705
 Red. masses --      4.7461                 3.3522                 2.8278
 Frc consts  --      0.0481                 0.0594                 0.0842
 IR Inten    --      1.3864                 0.0028                 1.7186

                      7                      8                      9
                      A                      A                      A
 Frequencies --    233.9364               262.6665               278.5969
 Red. masses --      1.1000                 1.4544                 2.2411
 Frc consts  --      0.0355                 0.0591                 0.1025
 IR Inten    --      0.0255                 0.3916                 2.0558

                     10                     11                     12
                      A                      A                      A
 Frequencies --    339.7792               357.6543               400.6204
 Red. masses --      3.6738                 3.0395                 2.4396
 Frc consts  --      0.2499                 0.2291                 0.2307
 IR Inten    --      0.2940                 5.7433                13.0423

                     13                     14                     15
                      A                      A                      A
 Frequencies --    421.9959               470.7237               478.8269
 Red. masses --      4.4961                 1.2192                 3.2017
 Frc consts  --      0.4717                 0.1592                 0.4325
 IR Inten    --      4.5467               126.7310                14.4412

                     16                     17                     18
                      A                      A                      A
 Frequencies --    517.5928               537.5789               576.0897
 Red. masses --      1.8155                 2.9993                 1.5852
 Frc consts  --      0.2866                 0.5107                 0.3100
 IR Inten    --     42.1492                20.5041                 0.6866

                     19                     20                     21
                      A                      A                      A
 Frequencies --    646.7710               659.1467               671.1750
 Red. masses --      5.4775                 3.6952                 3.7184
 Frc consts  --      1.3500                 0.9459                 0.9869
 IR Inten    --      2.5041                 7.7081               119.9746

                     22                     23                     24
                      A                      A                      A
 Frequencies --    772.3488               796.0963               853.0032
 Red. masses --      4.0532                 4.5419                 1.5125
 Frc consts  --      1.4246                 1.6960                 0.6484
 IR Inten    --      6.1082                 2.1518                17.9957

                     25                     26                     27
                      A                      A                      A
 Frequencies --    880.4051               917.3717               934.0976
 Red. masses --      1.3509                 2.4295                 1.1504
 Frc consts  --      0.6169                 1.2046                 0.5914
 IR Inten    --      6.8107                 1.5180                 0.6837

                     28                     29                     30
                      A                      A                      A
 Frequencies --    972.7490               979.6801               990.8366
 Red. masses --      1.4500                 1.3741                 1.4891
 Frc consts  --      0.8084                 0.7770                 0.8613
 IR Inten    --      0.2083                 0.1685               105.4721

                     31                     32                     33
                      A                      A                      A
 Frequencies --   1018.8034              1030.6543              1040.3950
 Red. masses --      1.3565                 1.8634                 2.0666
 Frc consts  --      0.8296                 1.1662                 1.3180
 IR Inten    --      0.0737               141.9917                33.7618

                     34                     35                     36
                      A                      A                      A
 Frequencies --   1075.7175              1133.1729              1140.9033
 Red. masses --      1.5961                 2.0730                 2.3424
 Frc consts  --      1.0882                 1.5683                 1.7964
 IR Inten    --     13.6478                 9.0143                 0.5880

                     37                     38                     39
                      A                      A                      A
 Frequencies --   1148.2336              1178.6894              1218.7889
 Red. masses --      1.7057                 1.8356                 1.1323
 Frc consts  --      1.3250                 1.5026                 0.9909
 IR Inten    --     63.6298                 1.6797                 1.9942

                     40                     41                     42
                      A                      A                      A
 Frequencies --   1249.5434              1301.7567              1326.8453
 Red. masses --      1.8821                 7.0372                 1.4428
 Frc consts  --      1.7314                 7.0260                 1.4966
 IR Inten    --      1.9915                11.4230                 6.4993

                     43                     44                     45
                      A                      A                      A
 Frequencies --   1346.4231              1380.9325              1391.3704
 Red. masses --      1.3523                 1.7194                 3.9331
 Frc consts  --      1.4444                 1.9318                 4.4861
 IR Inten    --      0.7051                44.4681               493.5091

                     46                     47                     48
                      A                      A                      A
 Frequencies --   1400.7564              1411.5753              1422.0209
 Red. masses --      1.2604                 3.6896                 1.3402
 Frc consts  --      1.4571                 4.3315                 1.5967
 IR Inten    --      9.1949               226.9353                16.6178

                     49                     50                     51
                      A                      A                      A
 Frequencies --   1456.7573              1489.3308              1494.0990
 Red. masses --      2.9536                 1.0428                 1.0466
 Frc consts  --      3.6930                 1.3628                 1.3766
 IR Inten    --    122.4969                 0.0082                 3.5832

                     52                     53                     54
                      A                      A                      A
 Frequencies --   1507.3629              1512.1483              1562.5285
 Red. masses --      1.0508                 1.0686                 2.6887
 Frc consts  --      1.4067                 1.4397                 3.8677
 IR Inten    --      9.4270                15.0235                 9.7582

                     55                     56                     57
                      A                      A                      A
 Frequencies --   1633.6222              1684.5272              3056.0456
 Red. masses --      6.2749                 6.1328                 1.0346
 Frc consts  --      9.8664                10.2534                 5.6932
 IR Inten    --      8.9214                68.0342                19.8884

                     58                     59                     60
                      A                      A                      A
 Frequencies --   3057.5432              3061.6714              3126.4898
 Red. masses --      1.0446                 1.0747                 1.1026
 Frc consts  --      5.7537                 5.9357                 6.3501
 IR Inten    --     19.2349                16.4819                 0.7011

                     61                     62                     63
                      A                      A                      A
 Frequencies --   3131.7311              3137.6632              3139.1606
 Red. masses --      1.1015                 1.1030                 1.1027
 Frc consts  --      6.3654                 6.3981                 6.4025
 IR Inten    --     56.4672                13.7748                24.0534

                     64                     65                     66
                      A                      A                      A
 Frequencies --   3161.9249              3190.9634              3193.9101
 Red. masses --      1.0877                 1.0878                 1.0935
 Frc consts  --      6.4071                 6.5261                 6.5720
 IR Inten    --     25.2521                 5.1826                14.3389

                     67                     68                     69
                      A                      A                      A
 Frequencies --   3210.6139              3910.3214              3950.6919
 Red. masses --      1.0946                 1.0653                 1.0660
 Frc consts  --      6.6479                 9.5970                 9.8025
 IR Inten    --      4.3110               112.0974                52.6238

 - Thermochemistry -
 -------------------
 Temperature   298.150 Kelvin.  Pressure   1.00000 Atm.
 Atom     1 has atomic number  8 and mass  15.99491

 Molecular mass:   164.10086 amu.
 Principal axes and moments of inertia in atomic units:
                           1         2         3
     Eigenvalues --   719.992434241.916184573.85052
           X            0.84279   0.51757  -0.14774
           Y           -0.30026   0.67990   0.66901
           Z            0.44671  -0.51948   0.72842
 This molecule is an asymmetric top.
 Rotational symmetry number  1.
 Warning -- assumption of classical behavior for rotation
           may cause significant error
 Rotational temperatures (Kelvin)      0.12030     0.02042     0.01894
 Rotational constants (GHZ):           2.50661     0.42545     0.39458
 Zero-point vibrational energy     553261.6 (Joules/Mol)
                                  132.23269 (Kcal/Mol)
 Warning -- explicit consideration of  18 degrees of freedom as
           vibrations may cause significant error
 Vibrational temperatures:     33.03    57.95   100.85   188.66   249.42
          (Kelvin)            323.54   336.58   377.92   400.84   488.87
                              514.58   576.40   607.16   677.27   688.93
                              744.70   773.46   828.86   930.56   948.37
                              965.67  1111.24  1145.40  1227.28  1266.71
                             1319.89  1343.96  1399.57  1409.54  1425.59
                             1465.83  1482.88  1496.90  1547.72  1630.38
                             1641.51  1652.05  1695.87  1753.57  1797.81
                             1872.94  1909.03  1937.20  1986.85  2001.87
                             2015.38  2030.94  2045.97  2095.95  2142.81
                             2149.68  2168.76  2175.64  2248.13  2350.42
                             2423.66  4396.97  4399.12  4405.06  4498.32
                             4505.86  4514.40  4516.55  4549.30  4591.08
                             4595.32  4619.36  5626.08  5684.16

 Zero-point correction=                           0.210726 (Hartree/Particle)
 Thermal correction to Energy=                    0.222958
 Thermal correction to Enthalpy=                  0.223902
 Thermal correction to Gibbs Free Energy=         0.171259
 Sum of electronic and zero-point Energies=           -525.929498
 Sum of electronic and thermal Energies=              -525.917266
 Sum of electronic and thermal Enthalpies=            -525.916322
 Sum of electronic and thermal Free Energies=         -525.968965

                     E (Thermal)             CV                S
                      KCal/Mol        Cal/Mol-Kelvin    Cal/Mol-Kelvin
 Total                  139.908             46.301            110.797
 Electronic               0.000              0.000              0.000
 Translational            0.889              2.981             41.194
 Rotational               0.889              2.981             31.014
 Vibrational            138.131             40.339             38.589
 Vibration     1          0.593              1.985              6.360
 Vibration     2          0.594              1.981              5.245
 Vibration     3          0.598              1.968              4.151
 Vibration     4          0.612              1.922              2.929
 Vibration     5          0.627              1.875              2.399
 Vibration     6          0.650              1.803              1.920
 Vibration     7          0.654              1.789              1.849
 Vibration     8          0.670              1.741              1.644
 Vibration     9          0.679              1.713              1.542
 Vibration    10          0.720              1.596              1.213
 Vibration    11          0.733              1.560              1.132
 Vibration    12          0.766              1.469              0.960
 Vibration    13          0.784              1.422              0.885
 Vibration    14          0.828              1.315              0.736
 Vibration    15          0.835              1.297              0.713
 Vibration    16          0.873              1.211              0.616
 Vibration    17          0.893              1.167              0.571
 Vibration    18          0.933              1.083              0.493

 Optimization completed.
    -- Stationary point found.
 Normal termination of Gaussian 16 at Mon Apr 21 18:32:29 2025.
