 Gaussian 16, Revision C.01,
 Gaussian 16:  AS64L-G16RevC.01  3-Jul-2019

 ----------------------------------------------------------------------
 # opt=(calcfc,tight) freq 6-311+g(d,p) scrf=(smd,solvent=thf) nosymm s
 cf=(qc,fermi,xqc) geom=connectivity int=ultrafine m062x
 ----------------------------------------------------------------------

 ------------------------
 4-Me-phboh2-opt-freq-thf
 ------------------------
 Symbolic Z-matrix:
 Charge =  0 Multiplicity = 1

 SCF Done:  E(RM062X) =  -447.545582574     A.U. after   14 cycles
 SCF Done:  E(RM062X) =  -447.545632905     A.U. after   10 cycles
 SCF Done:  E(RM062X) =  -447.545624508     A.U. after   12 cycles
 SCF Done:  E(RM062X) =  -447.545633007     A.U. after    9 cycles
 SCF Done:  E(RM062X) =  -447.545633049     A.U. after    9 cycles
 SCF Done:  E(RM062X) =  -447.545633080     A.U. after    9 cycles
 SCF Done:  E(RM062X) =  -447.545633082     A.U. after    6 cycles
 SCF Done:  E(RM062X) =  -447.545633082     A.U. after    6 cycles
 Optimization completed.
    -- Stationary point found.
 Normal termination of Gaussian 16 at Tue Apr 22 20:44:44 2025.

 ----------------------------------------------------------------------
 #N Geom=AllCheck Guess=TCheck SCRF=Check GenChk RM062X/6-311+G(d,p) Fr
 eq
 ----------------------------------------------------------------------

 Structure from the checkpoint file:  "4-Me-phboh2-opt-freq-thf.chk"
 ------------------------
 4-Me-phboh2-opt-freq-thf
 ------------------------
 Charge =  0 Multiplicity = 1

                          Input orientation:
 ---------------------------------------------------------------------
 Center     Atomic      Atomic             Coordinates (Angstroms)
 Number     Number       Type             X           Y           Z
 ---------------------------------------------------------------------
      1          8           0        8.704354    7.448253    5.544394
      2          1           0        9.517066    7.128421    5.952505
      3          6           0        6.252407    6.997587    5.176957
      4          5           0        7.649008    6.611357    5.771576
      5          8           0        7.884442    5.482943    6.509989
      6          1           0        7.108564    4.933000    6.653604
      7          6           0        5.120984    6.184355    5.312439
      8          1           0        5.177354    5.237760    5.844070
      9          6           0        3.892626    6.557684    4.777334
     10          1           0        3.030782    5.909460    4.900273
     11          6           0        3.751608    7.760942    4.082430
     12          6           0        4.875651    8.580424    3.944490
     13          1           0        4.783957    9.522512    3.412769
     14          6           0        6.101321    8.203804    4.479131
     15          1           0        6.959706    8.856447    4.359559
     16          6           0        2.432257    8.154502    3.475280
     17          1           0        2.385623    7.839908    2.428199
     18          1           0        1.599554    7.684190    4.000804
     19          1           0        2.294809    9.237094    3.500199
 ---------------------------------------------------------------------

 SCF Done:  E(RM062X) =  -447.545633082     A.U. after    1 cycles

 Alpha  occ. eigenvalues --  -19.63413 -19.62850 -10.55446 -10.54701 -10.54223
 Alpha  occ. eigenvalues --  -10.53920 -10.53784 -10.52665 -10.52613  -7.08104
 Alpha  occ. eigenvalues --   -1.16427  -1.12730  -0.96320  -0.86927  -0.84217
 Alpha  occ. eigenvalues --   -0.77454  -0.69046  -0.67087  -0.64580  -0.62458
 Alpha  occ. eigenvalues --   -0.57241  -0.52942  -0.51975  -0.49519  -0.48720
 Alpha  occ. eigenvalues --   -0.48461  -0.47507  -0.45333  -0.44382  -0.43478
 Alpha  occ. eigenvalues --   -0.42243  -0.40249  -0.39227  -0.37832  -0.30969
 Alpha  occ. eigenvalues --   -0.29945
 Alpha virt. eigenvalues --   -0.00096   0.00179   0.01661   0.02128   0.02277
 Alpha virt. eigenvalues --    0.03231   0.03835   0.04510   0.05140   0.05807
 Alpha virt. eigenvalues --    0.07161   0.07593   0.09200   0.09441   0.10402

 Mulliken charges:
               1
     1  O   -0.391928
     2  H    0.324215
     3  C   -0.608497
     4  B    0.499617
     5  O   -0.383203
     6  H    0.280774
     7  C   -0.103279
     8  H    0.168608
     9  C   -0.540888
    10  H    0.185106
    11  C    0.892693
    12  C   -0.447410
    13  H    0.186482
    14  C   -0.157645
    15  H    0.194083
    16  C   -0.679483
    17  H    0.214751
    18  H    0.182461
    19  H    0.183542
 Sum of Mulliken charges =   0.00000

 Dipole moment (field-independent basis, Debye):
    X=             -1.9392    Y=             -1.0237    Z=              0.0830  Tot=              2.1944
 Quadrupole moment (field-independent basis, Debye-Ang):
   XX=            -74.7823   YY=            -69.2792   ZZ=            -58.6705
   XY=            -19.4895   XZ=             -6.0697   YZ=             -9.2197

  Exact polarizability:     158.172       0.579     128.213      21.984     -27.343     100.433
 Approx polarizability:     141.610       3.913     123.807      15.275     -23.570      97.050

                      1                      2                      3
                      A                      A                      A
 Frequencies --     36.8302                40.9970                94.7017
 Red. masses --      2.7197                 1.2265                 4.2141
 Frc consts  --      0.0022                 0.0012                 0.0223
 IR Inten    --      3.4237                 0.6846                 1.6458

                      4                      5                      6
                      A                      A                      A
 Frequencies --    153.2132               254.3710               313.5880
 Red. masses --      4.8115                 3.8794                 5.9214
 Frc consts  --      0.0665                 0.1479                 0.3431
 IR Inten    --      3.2759                 0.3631                 6.2745

                      7                      8                      9
                      A                      A                      A
 Frequencies --    335.6323               406.2461               434.9630
 Red. masses --      2.9924                 2.5229                 4.1736
 Frc consts  --      0.1986                 0.2453                 0.4652
 IR Inten    --      3.7548                16.2036                 5.3610

                     10                     11                     12
                      A                      A                      A
 Frequencies --    461.1589               470.1495               504.0785
 Red. masses --      2.2751                 1.1800                 3.8591
 Frc consts  --      0.2851                 0.1537                 0.5777
 IR Inten    --      1.4992               258.5799                46.6002

                     13                     14                     15
                      A                      A                      A
 Frequencies --    545.1710               649.4009               653.6156
 Red. masses --      1.2864                 6.8960                 4.5056
 Frc consts  --      0.2253                 1.7134                 1.1341
 IR Inten    --      2.4517                 1.9798               132.7657

                     16                     17                     18
                      A                      A                      A
 Frequencies --    667.5319               744.3893               825.4139
 Red. masses --      4.2651                 3.1713                 4.2081
 Frc consts  --      1.1197                 1.0354                 1.6892
 IR Inten    --     16.3216                31.6267                 3.4886

                     19                     20                     21
                      A                      A                      A
 Frequencies --    840.8134               875.7080               985.6985
 Red. masses --      1.5927                 1.2571                 1.3114
 Frc consts  --      0.6634                 0.5680                 0.7507
 IR Inten    --     37.0872                 0.8101                 1.2377

                     22                     23                     24
                      A                      A                      A
 Frequencies --    990.7873              1010.8961              1015.7412
 Red. masses --      1.4908                 1.4265                 1.3801
 Frc consts  --      0.8623                 0.8589                 0.8390
 IR Inten    --    135.2811                 9.8737                 0.6676

                     25                     26                     27
                      A                      A                      A
 Frequencies --   1028.2623              1038.7209              1064.1741
 Red. masses --      1.7586                 2.1105                 1.5884
 Frc consts  --      1.0955                 1.3416                 1.0598
 IR Inten    --    162.5819                35.3060                18.7890

                     28                     29                     30
                      A                      A                      A
 Frequencies --   1129.6197              1141.4838              1207.9671
 Red. masses --      2.2216                 1.5063                 1.1258
 Frc consts  --      1.6703                 1.1564                 0.9679
 IR Inten    --     26.8625                69.5018                 7.2576

                     31                     32                     33
                      A                      A                      A
 Frequencies --   1249.6249              1300.5768              1337.7265
 Red. masses --      2.6331                 6.1559                 1.3634
 Frc consts  --      2.4226                 6.1350                 1.4375
 IR Inten    --      5.4536                20.8775                 6.4439

                     34                     35                     36
                      A                      A                      A
 Frequencies --   1373.4728              1391.3827              1409.2566
 Red. masses --      4.2829                 5.0734                 1.3017
 Frc consts  --      4.7603                 5.7869                 1.5231
 IR Inten    --    705.7038               342.9040                19.0643

                     37                     38                     39
                      A                      A                      A
 Frequencies --   1436.5808              1478.9927              1480.7134
 Red. masses --      2.6045                 1.0914                 1.1152
 Frc consts  --      3.1669                 1.4066                 1.4406
 IR Inten    --     92.4532                30.4877                37.8275

                     40                     41                     42
                      A                      A                      A
 Frequencies --   1559.9225              1629.5913              1679.1231
 Red. masses --      2.7883                 5.9349                 6.2436
 Frc consts  --      3.9976                 9.2858                10.3718
 IR Inten    --      7.1116                 7.3225               115.0630

                     43                     44                     45
                      A                      A                      A
 Frequencies --   3060.7682              3125.4541              3151.0851
 Red. masses --      1.0388                 1.0983                 1.1039
 Frc consts  --      5.7336                 6.3211                 6.4577
 IR Inten    --     18.8697                14.6443                15.3584

                     46                     47                     48
                      A                      A                      A
 Frequencies --   3170.7272              3188.3518              3198.7656
 Red. masses --      1.0886                 1.0893                 1.0941
 Frc consts  --      6.4479                 6.5242                 6.5956
 IR Inten    --     20.7129                 7.0103                16.5542

                     49                     50                     51
                      A                      A                      A
 Frequencies --   3208.5425              3854.9729              3884.4475
 Red. masses --      1.0945                 1.0652                 1.0660
 Frc consts  --      6.6389                 9.3264                 9.4765
 IR Inten    --      6.7381               187.6930               125.7859

 - Thermochemistry -
 -------------------
 Temperature   298.150 Kelvin.  Pressure   1.00000 Atm.
 Atom     1 has atomic number  8 and mass  15.99491

 Molecular mass:   136.06956 amu.
 Principal axes and moments of inertia in atomic units:
                           1         2         3
     Eigenvalues --   497.542452449.691292935.58785
           X            0.88549   0.40424  -0.22913
           Y           -0.25891   0.83870   0.47910
           Z            0.38585  -0.36492   0.84732
 This molecule is an asymmetric top.
 Rotational symmetry number  1.
 Warning -- assumption of classical behavior for rotation
           may cause significant error
 Rotational temperatures (Kelvin)      0.17408     0.03536     0.02950
 Rotational constants (GHZ):           3.62731     0.73672     0.61478
 Zero-point vibrational energy     401295.7 (Joules/Mol)
                                   95.91198 (Kcal/Mol)
 Warning -- explicit consideration of  13 degrees of freedom as
           vibrations may cause significant error
 Vibrational temperatures:     52.99    58.99   136.25   220.44   365.98
          (Kelvin)            451.18   482.90   584.50   625.81   663.50
                              676.44   725.26   784.38   934.34   940.41
                              960.43  1071.01  1187.59  1209.74  1259.95
                             1418.20  1425.52  1454.45  1461.43  1479.44
                             1494.49  1531.11  1625.27  1642.34  1738.00
                             1797.93  1871.24  1924.69  1976.12  2001.89
                             2027.61  2066.92  2127.94  2130.42  2244.38
                             2344.62  2415.88  4403.76  4496.83  4533.71
                             4561.97  4587.33  4602.31  4616.38  5546.45
                             5588.85

 Zero-point correction=                           0.152845 (Hartree/Particle)
 Thermal correction to Energy=                    0.162606
 Thermal correction to Enthalpy=                  0.163550
 Thermal correction to Gibbs Free Energy=         0.116653
 Sum of electronic and zero-point Energies=           -447.392788
 Sum of electronic and thermal Energies=              -447.383027
 Sum of electronic and thermal Enthalpies=            -447.382083
 Sum of electronic and thermal Free Energies=         -447.428980

                     E (Thermal)             CV                S
                      KCal/Mol        Cal/Mol-Kelvin    Cal/Mol-Kelvin
 Total                  102.037             36.283             98.703
 Electronic               0.000              0.000              0.000
 Translational            0.889              2.981             40.636
 Rotational               0.889              2.981             29.660
 Vibrational            100.259             30.322             28.407
 Vibration     1          0.594              1.982              5.423
 Vibration     2          0.594              1.981              5.210
 Vibration     3          0.603              1.953              3.561
 Vibration     4          0.619              1.899              2.632
 Vibration     5          0.665              1.755              1.700
 Vibration     6          0.701              1.648              1.343
 Vibration     7          0.717              1.604              1.233
 Vibration     8          0.771              1.457              0.940
 Vibration     9          0.796              1.394              0.843
 Vibration    10          0.819              1.336              0.763
 Vibration    11          0.827              1.316              0.737
 Vibration    12          0.859              1.241              0.648
 Vibration    13          0.900              1.150              0.554

 Optimization completed.
    -- Stationary point found.
 Normal termination of Gaussian 16 at Tue Apr 22 20:46:30 2025.
