 Gaussian 16, Revision C.01,
 Gaussian 16:  AS64L-G16RevC.01  3-Jul-2019

 ----------------------------------------------------------------------
 # opt=(calcfc,tight) freq 6-311+g(d,p) scrf=(smd,solvent=thf) nosymm s
 cf=(qc,fermi,xqc) geom=connectivity int=ultrafine m062x
 ----------------------------------------------------------------------

 --------------------
 4-Me-ph-opt-freq-thf
 --------------------
 Symbolic Z-matrix:
 Charge =  0 Multiplicity = 2

 SCF Done:  E(UM062X) =  -270.822887707     A.U. after   16 cycles
 SCF Done:  E(UM062X) =  -270.827582913     A.U. after   15 cycles
 SCF Done:  E(UM062X) =  -270.827604903     A.U. after   11 cycles
 SCF Done:  E(UM062X) =  -270.827605603     A.U. after   10 cycles
 SCF Done:  E(UM062X) =  -270.827606852     A.U. after   11 cycles
 SCF Done:  E(UM062X) =  -270.827591831     A.U. after   13 cycles
 SCF Done:  E(UM062X) =  -270.827607101     A.U. after   12 cycles
 SCF Done:  E(UM062X) =  -270.827574557     A.U. after   16 cycles
 SCF Done:  E(UM062X) =  -270.827599611     A.U. after   13 cycles
 SCF Done:  E(UM062X) =  -270.827607595     A.U. after   12 cycles
 SCF Done:  E(UM062X) =  -270.827608039     A.U. after   10 cycles
 SCF Done:  E(UM062X) =  -270.827607682     A.U. after    8 cycles
 SCF Done:  E(UM062X) =  -270.827608194     A.U. after   10 cycles
 SCF Done:  E(UM062X) =  -270.827608205     A.U. after    8 cycles
 SCF Done:  E(UM062X) =  -270.827608207     A.U. after    7 cycles
 SCF Done:  E(UM062X) =  -270.827608208     A.U. after    5 cycles
 SCF Done:  E(UM062X) =  -270.827608207     A.U. after    6 cycles
 SCF Done:  E(UM062X) =  -270.827608207     A.U. after    5 cycles
 SCF Done:  E(UM062X) =  -270.827608208     A.U. after    5 cycles
 Optimization completed.
    -- Stationary point found.
 Normal termination of Gaussian 16 at Tue May  6 17:41:34 2025.

 ----------------------------------------------------------------------
 #N Geom=AllCheck Guess=TCheck SCRF=Check GenChk UM062X/6-311+G(d,p) Fr
 eq
 ----------------------------------------------------------------------

 Structure from the checkpoint file:  "4-Me-ph-opt-freq-thf.chk"
 --------------------
 4-Me-ph-opt-freq-thf
 --------------------
 Charge =  0 Multiplicity = 2

                          Input orientation:
 ---------------------------------------------------------------------
 Center     Atomic      Atomic             Coordinates (Angstroms)
 Number     Number       Type             X           Y           Z
 ---------------------------------------------------------------------
      1          6           0        6.175280    7.017869    5.142948
      2          6           0        5.122078    6.148439    5.295296
      3          1           0        5.222334    5.201657    5.814441
      4          6           0        3.896141    6.540938    4.750532
      5          1           0        3.034805    5.886975    4.849365
      6          6           0        3.759480    7.761896    4.081867
      7          6           0        4.872673    8.598432    3.967080
      8          1           0        4.774918    9.550730    3.454871
      9          6           0        6.111997    8.230861    4.503105
     10          1           0        6.972137    8.885144    4.413224
     11          6           0        2.435992    8.153317    3.476481
     12          1           0        2.298919    7.670519    2.504444
     13          1           0        1.605553    7.847819    4.115920
     14          1           0        2.376332    9.232072    3.324361
 ---------------------------------------------------------------------

 SCF Done:  E(UM062X) =  -270.827608208     A.U. after    1 cycles

 Alpha  occ. eigenvalues --  -10.56548 -10.55236 -10.54952 -10.54931 -10.54651
 Alpha  occ. eigenvalues --  -10.54645 -10.52661  -0.97279  -0.87219  -0.85062
 Alpha  occ. eigenvalues --   -0.76956  -0.69687  -0.66144  -0.56949  -0.53571
 Alpha  occ. eigenvalues --   -0.52198  -0.49715  -0.48653  -0.44575  -0.43614
 Alpha  occ. eigenvalues --   -0.43469  -0.40676  -0.31383  -0.30637  -0.30308
 Alpha virt. eigenvalues --    0.01155   0.01867   0.02058   0.03440   0.03581
 Alpha virt. eigenvalues --    0.05727   0.05804   0.06015   0.07206   0.08346
 Alpha virt. eigenvalues --    0.08455   0.08864   0.09515   0.11253   0.12922

  Beta  occ. eigenvalues --  -10.55594 -10.55267 -10.54954 -10.54933 -10.54570
  Beta  occ. eigenvalues --  -10.54565 -10.52655  -0.96517  -0.86284  -0.84643
  Beta  occ. eigenvalues --   -0.75964  -0.69175  -0.65244  -0.55486  -0.52780
  Beta  occ. eigenvalues --   -0.51328  -0.49272  -0.48638  -0.44297  -0.42690
  Beta  occ. eigenvalues --   -0.42410  -0.40291  -0.31419  -0.29388
  Beta virt. eigenvalues --   -0.04996   0.01100   0.01994   0.02825   0.03493
  Beta virt. eigenvalues --    0.03734   0.05753   0.05807   0.06644   0.07450
  Beta virt. eigenvalues --    0.08498   0.08800   0.08850   0.09559   0.11618

 Mulliken charges and spin densities:
               1          2
     1  C    0.206723   0.816368
     2  C   -0.336461   0.066713
     3  H    0.202774   0.016877
     4  C   -0.346191   0.011255
     5  H    0.193326   0.004636
     6  C    0.765224  -0.017724
     7  C   -0.521867   0.015156
     8  H    0.191571   0.004641
     9  C   -0.364597   0.069294
    10  H    0.202604   0.017091
    11  C   -0.768361  -0.000601
    12  H    0.210757  -0.002438
    13  H    0.183045  -0.000935
    14  H    0.181454  -0.000334
 Sum of Mulliken charges =   0.00000   1.00000

 Dipole moment (field-independent basis, Debye):
    X=             -1.5255    Y=              0.4238    Z=             -0.6993  Tot=              1.7308
 Quadrupole moment (field-independent basis, Debye-Ang):
   XX=            -54.1534   YY=            -31.6719   ZZ=            -50.3105
   XY=             -7.0729   XZ=             -9.4613   YZ=             -6.8519

  Exact polarizability:     120.082       5.177     108.692      13.489     -21.136      80.087
 Approx polarizability:     110.399       6.238     103.718      10.573     -19.164      76.401

                      1                      2                      3
                      A                      A                      A
 Frequencies --     46.8563               223.5929               346.2500
 Red. masses --      1.0387                 3.5372                 2.5349
 Frc consts  --      0.0013                 0.1042                 0.1791
 IR Inten    --      0.5009                 1.0941                 0.7250

                      4                      5                      6
                      A                      A                      A
 Frequencies --    404.2198               465.7605               529.9396
 Red. masses --      2.8272                 2.8124                 5.5975
 Frc consts  --      0.2722                 0.3595                 0.9262
 IR Inten    --      0.0720                40.0103                 2.2297

                      7                      8                      9
                      A                      A                      A
 Frequencies --    613.2552               690.2393               786.5034
 Red. masses --      6.8765                 3.3779                 3.4461
 Frc consts  --      1.5237                 0.9482                 1.2560
 IR Inten    --      0.2481                 0.0991                14.2625

                     10                     11                     12
                      A                      A                      A
 Frequencies --    798.3252               836.5325               959.4613
 Red. masses --      1.4345                 1.2503                 1.2923
 Frc consts  --      0.5387                 0.5155                 0.7009
 IR Inten    --     92.3299                 0.0778                 0.0969

                     13                     14                     15
                      A                      A                      A
 Frequencies --    991.2073               996.8321              1008.8448
 Red. masses --      1.3836                 5.9430                 1.4114
 Frc consts  --      0.8009                 3.4794                 0.8463
 IR Inten    --      0.0624                 0.1325                 1.1396

                     16                     17                     18
                      A                      A                      A
 Frequencies --   1060.7199              1067.4435              1107.0150
 Red. masses --      2.1279                 1.5494                 1.3239
 Frc consts  --      1.4106                 1.0401                 0.9559
 IR Inten    --     19.6910                13.6886                16.5216

                     19                     20                     21
                      A                      A                      A
 Frequencies --   1173.4497              1235.4723              1295.6989
 Red. masses --      1.1476                 2.8368                 1.8475
 Frc consts  --      0.9310                 2.5512                 1.8274
 IR Inten    --      0.8592                 1.7668                 0.1498

                     22                     23                     24
                      A                      A                      A
 Frequencies --   1313.4788              1402.3170              1411.1838
 Red. masses --      2.4149                 2.7062                 1.2789
 Frc consts  --      2.4547                 3.1354                 1.5005
 IR Inten    --      0.1125                 0.8187                 1.7568

                     25                     26                     27
                      A                      A                      A
 Frequencies --   1478.8477              1484.0065              1496.1250
 Red. masses --      1.0491                 1.0959                 2.5958
 Frc consts  --      1.3518                 1.4220                 3.4234
 IR Inten    --     13.1807                18.6239                23.9293

                     28                     29                     30
                      A                      A                      A
 Frequencies --   1625.3831              1651.9828              3062.2765
 Red. masses --      5.8244                 7.2082                 1.0382
 Frc consts  --      9.0660                11.5901                 5.7363
 IR Inten    --      6.7074                 1.8891                23.0028

                     31                     32                     33
                      A                      A                      A
 Frequencies --   3126.4028              3150.2153              3188.5543
 Red. masses --      1.0995                 1.1036                 1.0887
 Frc consts  --      6.3318                 6.4526                 6.5212
 IR Inten    --     14.1229                15.0359                 5.8878

                     34                     35                     36
                      A                      A                      A
 Frequencies --   3189.5374              3206.3751              3209.6049
 Red. masses --      1.0889                 1.0937                 1.0949
 Frc consts  --      6.5265                 6.6249                 6.6458
 IR Inten    --      6.9263                 3.9889                 0.6978

 - Thermochemistry -
 -------------------
 Temperature   298.150 Kelvin.  Pressure   1.00000 Atm.
 Atom     1 has atomic number  6 and mass  12.00000

 Molecular mass:    91.05478 amu.
 Principal axes and moments of inertia in atomic units:
                           1         2         3
     Eigenvalues --   329.45910 672.67495 990.92322
           X            0.88062   0.40380  -0.24789
           Y           -0.26664   0.85481   0.44520
           Z            0.39167  -0.32596   0.86043
 This molecule is an asymmetric top.
 Rotational symmetry number  1.
 Rotational temperatures (Kelvin)      0.26290     0.12876     0.08741
 Rotational constants (GHZ):           5.47789     2.68293     1.82127
 Zero-point vibrational energy     302858.0 (Joules/Mol)
                                   72.38481 (Kcal/Mol)
 Warning -- explicit consideration of   7 degrees of freedom as
           vibrations may cause significant error
 Vibrational temperatures:     67.42   321.70   498.18   581.58   670.13
          (Kelvin)            762.46   882.34   993.10  1131.60  1148.61
                             1203.58  1380.45  1426.13  1434.22  1451.50
                             1526.14  1535.81  1592.75  1688.33  1777.57
                             1864.22  1889.80  2017.62  2030.38  2127.73
                             2135.15  2152.59  2338.56  2376.83  4405.93
                             4498.20  4532.46  4587.62  4589.03  4613.26
                             4617.91

 Zero-point correction=                           0.115353 (Hartree/Particle)
 Thermal correction to Energy=                    0.121501
 Thermal correction to Enthalpy=                  0.122445
 Thermal correction to Gibbs Free Energy=         0.084332
 Sum of electronic and zero-point Energies=           -270.712256
 Sum of electronic and thermal Energies=              -270.706107
 Sum of electronic and thermal Enthalpies=            -270.705163
 Sum of electronic and thermal Free Energies=         -270.743276

                     E (Thermal)             CV                S
                      KCal/Mol        Cal/Mol-Kelvin    Cal/Mol-Kelvin
 Total                   76.243             22.760             80.216
 Electronic               0.000              0.000              1.377
 Translational            0.889              2.981             39.439
 Rotational               0.889              2.981             26.887
 Vibrational             74.466             16.798             12.513
 Vibration     1          0.595              1.979              4.946
 Vibration     2          0.649              1.805              1.930
 Vibration     3          0.724              1.583              1.183
 Vibration     4          0.769              1.461              0.947
 Vibration     5          0.823              1.326              0.750
 Vibration     6          0.885              1.184              0.587
 Vibration     7          0.973              1.004              0.427

 Optimization completed.
    -- Stationary point found.
 Normal termination of Gaussian 16 at Tue May  6 17:42:53 2025.
