 Gaussian 16, Revision C.01,
 Gaussian 16:  AS64L-G16RevC.01  3-Jul-2019

 ----------------------------------------------------------------------
 # opt=(calcfc,tight) freq 6-311+g(d,p) scrf=(smd,solvent=thf) nosymm s
 cf=(qc,fermi,xqc) geom=connectivity int=ultrafine m062x
 ----------------------------------------------------------------------

 --------------------------
 4-Me-ph-anion-opt-freq-thf
 --------------------------
 Symbolic Z-matrix:
 Charge = -1 Multiplicity = 1

 SCF Done:  E(RM062X) =  -270.934837938     A.U. after   16 cycles
 SCF Done:  E(RM062X) =  -270.948131531     A.U. after   13 cycles
 SCF Done:  E(RM062X) =  -270.948503159     A.U. after   13 cycles
 SCF Done:  E(RM062X) =  -270.948478626     A.U. after   13 cycles
 SCF Done:  E(RM062X) =  -270.948507250     A.U. after   12 cycles
 SCF Done:  E(RM062X) =  -270.948495697     A.U. after   14 cycles
 SCF Done:  E(RM062X) =  -270.948510807     A.U. after   12 cycles
 SCF Done:  E(RM062X) =  -270.948506820     A.U. after   12 cycles
 SCF Done:  E(RM062X) =  -270.948510649     A.U. after   12 cycles
 SCF Done:  E(RM062X) =  -270.948511726     A.U. after   10 cycles
 SCF Done:  E(RM062X) =  -270.948507887     A.U. after   11 cycles
 SCF Done:  E(RM062X) =  -270.948512399     A.U. after   10 cycles
 SCF Done:  E(RM062X) =  -270.948512464     A.U. after    7 cycles
 SCF Done:  E(RM062X) =  -270.948509713     A.U. after   10 cycles
 SCF Done:  E(RM062X) =  -270.948512633     A.U. after   10 cycles
 SCF Done:  E(RM062X) =  -270.948512684     A.U. after   10 cycles
 SCF Done:  E(RM062X) =  -270.948512765     A.U. after   10 cycles
 SCF Done:  E(RM062X) =  -270.948512792     A.U. after    9 cycles
 SCF Done:  E(RM062X) =  -270.948512792     A.U. after    6 cycles
 Optimization completed.
    -- Stationary point found.
 Normal termination of Gaussian 16 at Tue May 27 07:58:04 2025.

 ----------------------------------------------------------------------
 #N Geom=AllCheck Guess=TCheck SCRF=Check GenChk RM062X/6-311+G(d,p) Fr
 eq
 ----------------------------------------------------------------------

 Structure from the checkpoint file:  "4-Me-ph-anion-opt-freq-thf.chk"
 --------------------------
 4-Me-ph-anion-opt-freq-thf
 --------------------------
 Charge = -1 Multiplicity = 1

                          Input orientation:
 ---------------------------------------------------------------------
 Center     Atomic      Atomic             Coordinates (Angstroms)
 Number     Number       Type             X           Y           Z
 ---------------------------------------------------------------------
      1          6           0        6.315472    6.983830    5.222154
      2          6           0        5.162786    6.160894    5.227123
      3          1           0        5.213851    5.172534    5.688266
      4          6           0        3.928139    6.517188    4.674447
      5          1           0        3.088387    5.824304    4.718516
      6          6           0        3.750592    7.759208    4.058238
      7          6           0        4.855044    8.610313    4.022926
      8          1           0        4.756015    9.585655    3.548501
      9          6           0        6.079275    8.223319    4.586113
     10          1           0        6.890352    8.950733    4.513491
     11          6           0        2.418072    8.157141    3.472441
     12          1           0        2.042046    7.394969    2.784036
     13          1           0        1.663220    8.288210    4.254026
     14          1           0        2.495388    9.098369    2.923658
 ---------------------------------------------------------------------

 SCF Done:  E(RM062X) =  -270.948512792     A.U. after    1 cycles

 Alpha  occ. eigenvalues --  -10.50881 -10.50507 -10.49701 -10.49672 -10.48695
 Alpha  occ. eigenvalues --  -10.48611 -10.44526  -0.91020  -0.81550  -0.78864
 Alpha  occ. eigenvalues --   -0.72463  -0.63273  -0.60709  -0.51337  -0.47610
 Alpha  occ. eigenvalues --   -0.46866  -0.45956  -0.43009  -0.41055  -0.38881
 Alpha  occ. eigenvalues --   -0.37695  -0.33356  -0.26300  -0.24211  -0.19367
 Alpha virt. eigenvalues --    0.03663   0.05239   0.05478   0.05542   0.05872
 Alpha virt. eigenvalues --    0.07543   0.08139   0.08399   0.09119   0.10478
 Alpha virt. eigenvalues --    0.10633   0.11095   0.11681   0.13247   0.15347

 Mulliken charges:
               1
     1  C   -1.061123
     2  C    0.055615
     3  H    0.144603
     4  C   -0.303657
     5  H    0.158400
     6  C    0.686469
     7  C   -0.666047
     8  H    0.154879
     9  C   -0.052618
    10  H    0.143821
    11  C   -0.799682
    12  H    0.178389
    13  H    0.190129
    14  H    0.170823
 Sum of Mulliken charges =  -1.00000

 Dipole moment (field-independent basis, Debye):
    X=            -31.0266    Y=            -33.3871    Z=            -25.3510  Tot=             52.1538
 Quadrupole moment (field-independent basis, Debye-Ang):
   XX=           -249.4892   YY=           -278.3275   ZZ=           -183.8890
   XY=           -213.8378   XZ=           -164.1953   YZ=           -177.5356

  Exact polarizability:     156.544      -0.625     130.690      22.677     -20.819     101.211
 Approx polarizability:     129.846       3.937     119.303      14.289     -17.163      90.590

                      1                      2                      3
                      A                      A                      A
 Frequencies --     14.8241               214.6874               339.7905
 Red. masses --      1.0489                 3.5258                 2.5591
 Frc consts  --      0.0001                 0.0957                 0.1741
 IR Inten    --      0.0906                 6.6606                 0.1209

                      4                      5                      6
                      A                      A                      A
 Frequencies --    377.0649               471.5741               520.6291
 Red. masses --      2.6190                 2.9480                 5.5683
 Frc consts  --      0.2194                 0.3863                 0.8893
 IR Inten    --      0.0509                52.6871                 4.2525

                      7                      8                      9
                      A                      A                      A
 Frequencies --    648.3400               727.0939               793.6405
 Red. masses --      6.9912                 3.4115                 3.5297
 Frc consts  --      1.7315                 1.0626                 1.3099
 IR Inten    --      0.1001                 1.1513                 7.2493

                     10                     11                     12
                      A                      A                      A
 Frequencies --    798.7682               879.1236               973.0604
 Red. masses --      1.4350                 1.2577                 1.2657
 Frc consts  --      0.5394                 0.5727                 0.7061
 IR Inten    --     42.4320                 0.0375                 0.7966

                     13                     14                     15
                      A                      A                      A
 Frequencies --    988.7557               999.1246               999.6406
 Red. masses --      4.2694                 1.6838                 1.4429
 Frc consts  --      2.4592                 0.9903                 0.8495
 IR Inten    --      0.9695                 6.7211                 0.1405

                     16                     17                     18
                      A                      A                      A
 Frequencies --   1049.0209              1062.0021              1103.0234
 Red. masses --      2.4370                 1.5238                 1.4486
 Frc consts  --      1.5800                 1.0126                 1.0384
 IR Inten    --     13.7284                 7.6058                 4.1909

                     19                     20                     21
                      A                      A                      A
 Frequencies --   1203.0055              1238.5251              1249.3739
 Red. masses --      1.1668                 3.2646                 4.2367
 Frc consts  --      0.9949                 2.9505                 3.8964
 IR Inten    --      0.8614                17.9800                27.3231

                     22                     23                     24
                      A                      A                      A
 Frequencies --   1334.1884              1394.3332              1407.2222
 Red. masses --      1.3023                 2.2669                 1.2874
 Frc consts  --      1.3658                 2.5966                 1.5020
 IR Inten    --      0.6988                 0.2967                 0.1439

                     25                     26                     27
                      A                      A                      A
 Frequencies --   1477.2093              1482.5287              1497.1205
 Red. masses --      1.0434                 1.0869                 2.2536
 Frc consts  --      1.3415                 1.4074                 2.9760
 IR Inten    --     11.3358                20.5779                 5.7759

                     28                     29                     30
                      A                      A                      A
 Frequencies --   1593.5963              1632.0552              3048.2833
 Red. masses --      5.2026                 5.6743                 1.0372
 Frc consts  --      7.7844                 8.9049                 5.6782
 IR Inten    --      2.7999                 4.8118                55.2310

                     31                     32                     33
                      A                      A                      A
 Frequencies --   3093.8754              3098.5504              3106.0217
 Red. masses --      1.0858                 1.0855                 1.1010
 Frc consts  --      6.1235                 6.1405                 6.2579
 IR Inten    --     77.9244                64.4393                24.6986

                     34                     35                     36
                      A                      A                      A
 Frequencies --   3129.7288              3143.2482              3148.3644
 Red. masses --      1.1021                 1.0918                 1.0920
 Frc consts  --      6.3602                 6.3556                 6.3772
 IR Inten    --     19.3732               100.3640                60.8637

 - Thermochemistry -
 -------------------
 Temperature   298.150 Kelvin.  Pressure   1.00000 Atm.
 Atom     1 has atomic number  6 and mass  12.00000

 Molecular mass:    91.05478 amu.
 Principal axes and moments of inertia in atomic units:
                           1         2         3
     Eigenvalues --   316.69107 705.713321011.23160
           X            0.88015   0.38695  -0.27495
           Y           -0.26368   0.88018   0.39466
           Z            0.39472  -0.27486   0.87673
 This molecule is an asymmetric top.
 Rotational symmetry number  1.
 Rotational temperatures (Kelvin)      0.27350     0.12273     0.08565
 Rotational constants (GHZ):           5.69874     2.55733     1.78470
 Zero-point vibrational energy     300486.3 (Joules/Mol)
                                   71.81796 (Kcal/Mol)
 Warning -- explicit consideration of   6 degrees of freedom as
           vibrations may cause significant error
 Vibrational temperatures:     21.33   308.89   488.88   542.51   678.49
          (Kelvin)            749.07   932.82  1046.13  1141.87  1149.25
                             1264.86  1400.02  1422.60  1437.52  1438.26
                             1509.31  1527.98  1587.00  1730.86  1781.96
                             1797.57  1919.60  2006.13  2024.68  2125.37
                             2133.03  2154.02  2292.83  2348.16  4385.80
                             4451.40  4458.12  4468.87  4502.98  4522.43
                             4529.79

 Zero-point correction=                           0.114449 (Hartree/Particle)
 Thermal correction to Energy=                    0.120674
 Thermal correction to Enthalpy=                  0.121618
 Thermal correction to Gibbs Free Energy=         0.083020
 Sum of electronic and zero-point Energies=           -270.834064
 Sum of electronic and thermal Energies=              -270.827839
 Sum of electronic and thermal Enthalpies=            -270.826894
 Sum of electronic and thermal Free Energies=         -270.865493

                     E (Thermal)             CV                S
                      KCal/Mol        Cal/Mol-Kelvin    Cal/Mol-Kelvin
 Total                   75.724             22.663             81.237
 Electronic               0.000              0.000              0.000
 Translational            0.889              2.981             39.439
 Rotational               0.889              2.981             26.916
 Vibrational             73.947             16.701             14.882
 Vibration     1          0.593              1.986              7.229
 Vibration     2          0.645              1.819              2.003
 Vibration     3          0.720              1.596              1.213
 Vibration     4          0.748              1.519              1.051
 Vibration     5          0.829              1.313              0.733
 Vibration     6          0.876              1.204              0.609

 Optimization completed.
    -- Stationary point found.
 Normal termination of Gaussian 16 at Tue May 27 07:58:48 2025.
