 Gaussian 16, Revision C.01,
 Gaussian 16:  AS64L-G16RevC.01  3-Jul-2019

 ----------------------------------------------------------------------
 # opt=(calcfc,tight) freq 6-311+g(d,p) scrf=(smd,solvent=thf) nosymm s
 cf=(qc,fermi,xqc) geom=connectivity int=ultrafine m062x
 ----------------------------------------------------------------------

 ---------------------
 4-no2-ph-opt-freq-thf
 ---------------------
 Symbolic Z-matrix:
 Charge =  0 Multiplicity = 2

 SCF Done:  E(UM062X) =  -436.008210312     A.U. after   17 cycles
 SCF Done:  E(UM062X) =  -436.012897581     A.U. after   16 cycles
 SCF Done:  E(UM062X) =  -436.012917475     A.U. after   12 cycles
 SCF Done:  E(UM062X) =  -436.012917547     A.U. after    9 cycles
 SCF Done:  E(UM062X) =  -436.012917547     A.U. after    8 cycles
 Optimization completed.
    -- Stationary point found.
 Normal termination of Gaussian 16 at Sat May 10 22:05:55 2025.

 ----------------------------------------------------------------------
 #N Geom=AllCheck Guess=TCheck SCRF=Check GenChk UM062X/6-311+G(d,p) Fr
 eq
 ----------------------------------------------------------------------

 Structure from the checkpoint file:  "4-no2-ph-opt-freq-thf.chk"
 ---------------------
 4-no2-ph-opt-freq-thf
 ---------------------
 Charge =  0 Multiplicity = 2

                          Input orientation:
 ---------------------------------------------------------------------
 Center     Atomic      Atomic             Coordinates (Angstroms)
 Number     Number       Type             X           Y           Z
 ---------------------------------------------------------------------
      1          6           0        6.156116    6.966053    5.139207
      2          6           0        5.111549    6.115763    5.412626
      3          1           0        5.233269    5.215795    6.003373
      4          6           0        3.866004    6.461248    4.890613
      5          1           0        2.995059    5.842640    5.062526
      6          6           0        3.765406    7.625844    4.137936
      7          6           0        4.842973    8.465226    3.878701
      8          1           0        4.710410    9.360894    3.286369
      9          6           0        6.089496    8.123126    4.400622
     10          1           0        6.954666    8.750393    4.222400
     11          7           0        2.447839    7.988842    3.585261
     12          8           0        1.504879    7.269148    3.843523
     13          8           0        2.373627    8.988519    2.900428
 ---------------------------------------------------------------------

 SCF Done:  E(UM062X) =  -436.012917548     A.U. after    1 cycles

 Alpha  occ. eigenvalues --  -19.67156 -19.67151 -15.01165 -10.61400 -10.59192
 Alpha  occ. eigenvalues --  -10.57951 -10.57948 -10.57076 -10.57073  -1.38631
 Alpha  occ. eigenvalues --   -1.19738  -1.00924  -0.91764  -0.87952  -0.79506
 Alpha  occ. eigenvalues --   -0.72516  -0.68654  -0.66207  -0.63974  -0.61715
 Alpha  occ. eigenvalues --   -0.55195  -0.55192  -0.54162  -0.52219  -0.47378
 Alpha  occ. eigenvalues --   -0.44261  -0.40499  -0.39279  -0.39266  -0.34759
 Alpha  occ. eigenvalues --   -0.33657  -0.32570
 Alpha virt. eigenvalues --   -0.06289  -0.00518   0.01697   0.03137   0.03180
 Alpha virt. eigenvalues --    0.03778   0.05538   0.05704   0.06233   0.07861
 Alpha virt. eigenvalues --    0.09045   0.09162   0.09555   0.11400   0.13460

  Beta  occ. eigenvalues --  -19.67165 -19.67161 -15.01156 -10.61436 -10.58188
  Beta  occ. eigenvalues --  -10.57866 -10.57863 -10.57084 -10.57079  -1.38641
  Beta  occ. eigenvalues --   -1.19765  -1.00368  -0.90811  -0.87567  -0.78140
  Beta  occ. eigenvalues --   -0.72029  -0.67933  -0.66059  -0.64029  -0.61654
  Beta  occ. eigenvalues --   -0.54454  -0.53871  -0.52360  -0.51720  -0.46704
  Beta  occ. eigenvalues --   -0.43724  -0.40434  -0.39411  -0.39275  -0.33735
  Beta  occ. eigenvalues --   -0.33343
  Beta virt. eigenvalues --   -0.06307  -0.05800  -0.00541   0.01694   0.03262
  Beta virt. eigenvalues --    0.03959   0.04011   0.05781   0.06214   0.06344
  Beta virt. eigenvalues --    0.08036   0.09224   0.09364   0.09865   0.11146

 Mulliken charges and spin densities:
               1          2
     1  C    0.471962   0.843528
     2  C   -0.628190   0.063499
     3  H    0.219099   0.017075
     4  C    0.246238   0.002830
     5  H    0.220382   0.003571
     6  C   -0.330454  -0.010185
     7  C    0.246901   0.002887
     8  H    0.220386   0.003572
     9  C   -0.628116   0.063605
    10  H    0.219097   0.017075
    11  N   -0.152811   0.001594
    12  O   -0.052306  -0.004530
    13  O   -0.052186  -0.004521
 Sum of Mulliken charges =   0.00000   1.00000

 Dipole moment (field-independent basis, Debye):
    X=              4.2723    Y=             -1.1765    Z=              1.7896  Tot=              4.7791
 Quadrupole moment (field-independent basis, Debye-Ang):
   XX=            -23.9863   YY=            -65.6038   ZZ=            -37.6754
   XY=             32.0711   XZ=             21.2561   YZ=              6.5906

  Exact polarizability:     127.978       6.383     107.397      13.604     -31.420      78.775
 Approx polarizability:     123.444      11.101     113.447       9.047     -33.563      80.489

                      1                      2                      3
                      A                      A                      A
 Frequencies --     36.5016               179.5109               267.1914
 Red. masses --      8.0344                 7.3252                 6.7578
 Frc consts  --      0.0063                 0.1391                 0.2843
 IR Inten    --      0.0020                 4.3712                 3.2432

                      4                      5                      6
                      A                      A                      A
 Frequencies --    402.6730               408.6119               436.5992
 Red. masses --      2.8509                10.4840                 3.7039
 Frc consts  --      0.2724                 1.0313                 0.4160
 IR Inten    --      0.0030                 1.3202                14.9340

                      7                      8                      9
                      A                      A                      A
 Frequencies --    535.5507               604.4999               655.5207
 Red. masses --      8.3270                 6.9205                 4.4039
 Frc consts  --      1.4071                 1.4900                 1.1150
 IR Inten    --      3.8148                 1.8757                 1.3603

                     10                     11                     12
                      A                      A                      A
 Frequencies --    694.0623               728.7821               828.1136
 Red. masses --      7.3816                 3.8802                 1.6946
 Frc consts  --      2.0951                 1.2142                 0.6847
 IR Inten    --     22.9288                79.1568                61.1482

                     13                     14                     15
                      A                      A                      A
 Frequencies --    829.1194               886.3288               978.6421
 Red. masses --      1.2649                10.3116                 1.2951
 Frc consts  --      0.5123                 4.7727                 0.7308
 IR Inten    --      3.6908                44.9154                 1.8744

                     16                     17                     18
                      A                      A                      A
 Frequencies --    997.4334               998.8620              1053.3259
 Red. masses --      1.3807                 6.6297                 2.0390
 Frc consts  --      0.8093                 3.8972                 1.3329
 IR Inten    --      0.0138                 0.0882                25.7081

                     19                     20                     21
                      A                      A                      A
 Frequencies --   1108.7974              1137.0112              1173.5124
 Red. masses --      1.2763                 2.5643                 1.4143
 Frc consts  --      0.9245                 1.9532                 1.1475
 IR Inten    --     13.4191                44.4707                 0.3501

                     22                     23                     24
                      A                      A                      A
 Frequencies --   1294.7382              1330.8570              1421.9841
 Red. masses --      1.2546                 5.4819                 4.3498
 Frc consts  --      1.2391                 5.7206                 5.1821
 IR Inten    --      0.1125                44.4443                 2.5358

                     25                     26                     27
                      A                      A                      A
 Frequencies --   1453.6667              1485.5106              1607.8999
 Red. masses --     13.5300                 2.3550                 5.9931
 Frc consts  --     16.8452                 3.0619                 9.1290
 IR Inten    --    484.0281                 4.3992                10.0282

                     28                     29                     30
                      A                      A                      A
 Frequencies --   1642.1626              1694.0841              3217.6323
 Red. masses --     11.2523                 9.8758                 1.0901
 Frc consts  --     17.8781                16.6991                 6.6494
 IR Inten    --    326.1206               251.0377                 0.5210

                     31                     32                     33
                      A                      A                      A
 Frequencies --   3218.7844              3245.5760              3247.3020
 Red. masses --      1.0916                 1.0947                 1.0944
 Frc consts  --      6.6635                 6.7938                 6.7993
 IR Inten    --      1.6061                 8.7584                 9.1526

 - Thermochemistry -
 -------------------
 Temperature   298.150 Kelvin.  Pressure   1.00000 Atm.
 Atom     1 has atomic number  6 and mass  12.00000

 Molecular mass:   122.02420 amu.
 Principal axes and moments of inertia in atomic units:
                           1         2         3
     Eigenvalues --   455.363841331.492301786.66179
           X            0.89383   0.40075  -0.20119
           Y           -0.24645   0.81385   0.52623
           Z            0.37462  -0.42077   0.82620
 This molecule is an asymmetric top.
 Rotational symmetry number  1.
 Warning -- assumption of classical behavior for rotation
           may cause significant error
 Rotational temperatures (Kelvin)      0.19021     0.06505     0.04848
 Rotational constants (GHZ):           3.96329     1.35543     1.01012
 Zero-point vibrational energy     238061.9 (Joules/Mol)
                                   56.89817 (Kcal/Mol)
 Warning -- explicit consideration of   8 degrees of freedom as
           vibrations may cause significant error
 Vibrational temperatures:     52.52   258.28   384.43   579.36   587.90
          (Kelvin)            628.17   770.54   869.74   943.15   998.60
                             1048.55  1191.47  1192.92  1275.23  1408.05
                             1435.08  1437.14  1515.50  1595.31  1635.91
                             1688.42  1862.84  1914.81  2045.92  2091.50
                             2137.32  2313.41  2362.71  2437.41  4629.46
                             4631.11  4669.66  4672.14

 Zero-point correction=                           0.090673 (Hartree/Particle)
 Thermal correction to Energy=                    0.097467
 Thermal correction to Enthalpy=                  0.098412
 Thermal correction to Gibbs Free Energy=         0.057837
 Sum of electronic and zero-point Energies=           -435.922245
 Sum of electronic and thermal Energies=              -435.915450
 Sum of electronic and thermal Enthalpies=            -435.914506
 Sum of electronic and thermal Free Energies=         -435.955081

                     E (Thermal)             CV                S
                      KCal/Mol        Cal/Mol-Kelvin    Cal/Mol-Kelvin
 Total                   61.162             25.216             85.397
 Electronic               0.000              0.000              1.377
 Translational            0.889              2.981             40.311
 Rotational               0.889              2.981             28.473
 Vibrational             59.384             19.254             15.235
 Vibration     1          0.594              1.982              5.440
 Vibration     2          0.629              1.867              2.333
 Vibration     3          0.672              1.733              1.614
 Vibration     4          0.768              1.464              0.953
 Vibration     5          0.773              1.452              0.932
 Vibration     6          0.797              1.390              0.837
 Vibration     7          0.891              1.171              0.575
 Vibration     8          0.963              1.022              0.442

 Optimization completed.
    -- Stationary point found.
 Normal termination of Gaussian 16 at Sat May 10 22:07:21 2025.
