 Gaussian 16, Revision C.01,
 Gaussian 16:  AS64L-G16RevC.01  3-Jul-2019

 ----------------------------------------------------------------------
 # opt=(calcfc,tight) freq 6-311+g(d,p) nosymm scf=(qc,fermi,xqc) geom=
 connectivity int=ultrafine m062x
 ----------------------------------------------------------------------

 --------------------
 4-OH-phboh2-opt-freq
 --------------------
 Symbolic Z-matrix:
 Charge =  0 Multiplicity = 1

 SCF Done:  E(RM062X) =  -483.448906299     A.U. after   14 cycles
 SCF Done:  E(RM062X) =  -483.450716440     A.U. after   12 cycles
 SCF Done:  E(RM062X) =  -483.450733808     A.U. after    9 cycles
 SCF Done:  E(RM062X) =  -483.450733863     A.U. after    9 cycles
 SCF Done:  E(RM062X) =  -483.450733864     A.U. after    7 cycles
 Optimization completed.
    -- Stationary point found.
 Normal termination of Gaussian 16 at Wed Apr 30 05:09:31 2025.

 ----------------------------------------------------------------------
 #N Geom=AllCheck Guess=TCheck SCRF=Check GenChk RM062X/6-311+G(d,p) Fr
 eq
 ----------------------------------------------------------------------

 Structure from the checkpoint file:  "4-OH-phboh2-opt-freq.chk"
 --------------------
 4-OH-phboh2-opt-freq
 --------------------
 Charge =  0 Multiplicity = 1

                          Input orientation:
 ---------------------------------------------------------------------
 Center     Atomic      Atomic             Coordinates (Angstroms)
 Number     Number       Type             X           Y           Z
 ---------------------------------------------------------------------
      1          8           0        8.654798    7.535349    5.465733
      2          1           0        9.459212    7.389017    5.971296
      3          6           0        6.250576    6.859679    5.174722
      4          5           0        7.633715    6.734243    5.887171
      5          8           0        7.895634    5.869139    6.917131
      6          1           0        7.144781    5.341821    7.193553
      7          6           0        5.150192    6.051996    5.489793
      8          1           0        5.228981    5.287404    6.258348
      9          6           0        3.931427    6.185374    4.843607
     10          1           0        3.082639    5.559183    5.088303
     11          6           0        3.790355    7.150280    3.848390
     12          6           0        4.866046    7.968887    3.509260
     13          1           0        4.751557    8.718699    2.732304
     14          6           0        6.077741    7.817348    4.168959
     15          1           0        6.913967    8.454280    3.903251
     16          8           0        2.578400    7.246827    3.241498
     17          1           0        2.600226    7.941116    2.577327
 ---------------------------------------------------------------------

 SCF Done:  E(RM062X) =  -483.450733864     A.U. after    1 cycles

 Alpha  occ. eigenvalues --  -19.66372 -19.63749 -19.62940 -10.61699 -10.55758
 Alpha  occ. eigenvalues --  -10.55161 -10.54948 -10.54577 -10.52666  -7.08236
 Alpha  occ. eigenvalues --   -1.20010  -1.16769  -1.13045  -0.96426  -0.85557
 Alpha  occ. eigenvalues --   -0.84291  -0.72315  -0.69578  -0.65559  -0.63450
 Alpha  occ. eigenvalues --   -0.62872  -0.56208  -0.55283  -0.52078  -0.50428
 Alpha  occ. eigenvalues --   -0.49853  -0.47792  -0.47652  -0.46812  -0.45497
 Alpha  occ. eigenvalues --   -0.41582  -0.40505  -0.40411  -0.39274  -0.31813
 Alpha  occ. eigenvalues --   -0.28891
 Alpha virt. eigenvalues --   -0.00298   0.00455   0.00684   0.01112   0.01753
 Alpha virt. eigenvalues --    0.03314   0.03349   0.03954   0.04901   0.06999
 Alpha virt. eigenvalues --    0.07731   0.07828   0.09313   0.10773   0.11031

 Mulliken charges:
               1
     1  O   -0.378834
     2  H    0.307650
     3  C   -0.237455
     4  B    0.470818
     5  O   -0.370577
     6  H    0.251986
     7  C   -0.372281
     8  H    0.124744
     9  C    0.393147
    10  H    0.161337
    11  C   -0.385525
    12  C    0.284090
    13  H    0.141000
    14  C   -0.557257
    15  H    0.182493
    16  O   -0.274990
    17  H    0.259653
 Sum of Mulliken charges =   0.00000

 Dipole moment (field-independent basis, Debye):
    X=             -0.4808    Y=              0.2300    Z=             -0.2747  Tot=              0.5997
 Quadrupole moment (field-independent basis, Debye-Ang):
   XX=            -64.2873   YY=            -51.5533   ZZ=            -55.5288
   XY=             -3.6384   XZ=             -0.8691   YZ=             -8.4934

  Exact polarizability:     112.622       5.426      76.410      20.211     -21.505      82.118
 Approx polarizability:     133.567       9.700     100.109      18.229     -27.446     102.772

                      1                      2                      3
                      A                      A                      A
 Frequencies --     23.3255                97.9560               155.6046
 Red. masses --      4.3283                 6.4805                 5.6716
 Frc consts  --      0.0014                 0.0366                 0.0809
 IR Inten    --      6.4471                 0.2112                 4.6035

                      4                      5                      6
                      A                      A                      A
 Frequencies --    267.8647               312.3466               315.2164
 Red. masses --      3.8957                 6.6218                 1.2013
 Frc consts  --      0.1647                 0.3806                 0.0703
 IR Inten    --      2.9407                 4.5268               112.2725

                      7                      8                      9
                      A                      A                      A
 Frequencies --    380.1704               399.5530               454.2549
 Red. masses --      5.3188                 2.2252                 3.3907
 Frc consts  --      0.4529                 0.2093                 0.4122
 IR Inten    --      0.3057                17.7154                25.1908

                     10                     11                     12
                      A                      A                      A
 Frequencies --    457.4112               497.5004               504.9559
 Red. masses --      1.4293                 2.0934                 4.1439
 Frc consts  --      0.1762                 0.3053                 0.6225
 IR Inten    --     97.7899                56.1105                45.8796

                     13                     14                     15
                      A                      A                      A
 Frequencies --    560.9572               650.4839               657.5398
 Red. masses --      1.3584                 6.9772                 3.6869
 Frc consts  --      0.2519                 1.7394                 0.9392
 IR Inten    --      5.0619                 1.9826                98.1725

                     16                     17                     18
                      A                      A                      A
 Frequencies --    681.8375               737.2531               840.2121
 Red. masses --      5.1731                 5.2766                 1.2679
 Frc consts  --      1.4170                 1.6898                 0.5274
 IR Inten    --      8.5734                31.8775                 2.8313

                     19                     20                     21
                      A                      A                      A
 Frequencies --    849.3975               855.1721               964.8166
 Red. masses --      1.7115                 6.1687                 1.2962
 Frc consts  --      0.7275                 2.6580                 0.7109
 IR Inten    --     40.3349                16.2406                 0.1262

                     22                     23                     24
                      A                      A                      A
 Frequencies --    984.3465               998.3321              1026.2317
 Red. masses --      1.4519                 1.3539                 1.9098
 Frc consts  --      0.8289                 0.7950                 1.1850
 IR Inten    --    107.0745                 0.4174               107.2400

                     25                     26                     27
                      A                      A                      A
 Frequencies --   1034.2931              1127.8364              1140.8098
 Red. masses --      1.9224                 1.6570                 1.9098
 Frc consts  --      1.2117                 1.2418                 1.4644
 IR Inten    --     49.9858                 0.6109                68.4670

                     28                     29                     30
                      A                      A                      A
 Frequencies --   1194.1626              1202.4969              1312.5033
 Red. masses --      1.4058                 1.1310                 2.5507
 Frc consts  --      1.1812                 0.9636                 2.5888
 IR Inten    --    172.5728                26.7617                 2.5991

                     31                     32                     33
                      A                      A                      A
 Frequencies --   1316.7260              1362.2208              1391.6121
 Red. masses --      3.7782                 1.6508                 4.1389
 Frc consts  --      3.8595                 1.8049                 4.7225
 IR Inten    --    154.6985                60.2801               568.9721

                     34                     35                     36
                      A                      A                      A
 Frequencies --   1410.5790              1472.2265              1568.5742
 Red. masses --      5.9364                 3.3063                 3.1003
 Frc consts  --      6.9593                 4.2222                 4.4943
 IR Inten    --    263.8989                62.3878                14.5191

                     37                     38                     39
                      A                      A                      A
 Frequencies --   1657.0557              1681.1059              3166.6806
 Red. masses --      6.0835                 6.2383                 1.0891
 Frc consts  --      9.8418                10.3874                 6.4347
 IR Inten    --     37.9965               188.0046                22.4146

                     40                     41                     42
                      A                      A                      A
 Frequencies --   3184.0984              3214.7527              3228.2139
 Red. masses --      1.0900                 1.0935                 1.0936
 Frc consts  --      6.5107                 6.6582                 6.7150
 IR Inten    --      8.7319                 2.4991                 1.8383

                     43                     44                     45
                      A                      A                      A
 Frequencies --   3898.8410              3910.3487              3949.7113
 Red. masses --      1.0663                 1.0653                 1.0660
 Frc consts  --      9.5499                 9.5973                 9.7981
 IR Inten    --     94.6131               106.0089                53.8636

 - Thermochemistry -
 -------------------
 Temperature   298.150 Kelvin.  Pressure   1.00000 Atm.
 Atom     1 has atomic number  8 and mass  15.99491

 Molecular mass:   138.04882 amu.
 Principal axes and moments of inertia in atomic units:
                           1         2         3
     Eigenvalues --   489.978412435.114352924.59914
           X            0.88013   0.37894  -0.28596
           Y           -0.09330   0.72870   0.67845
           Z            0.46547  -0.57044   0.67671
 This molecule is an asymmetric top.
 Rotational symmetry number  1.
 Warning -- assumption of classical behavior for rotation
           may cause significant error
 Rotational temperatures (Kelvin)      0.17677     0.03557     0.02962
 Rotational constants (GHZ):           3.68331     0.74113     0.61709
 Zero-point vibrational energy     341519.4 (Joules/Mol)
                                   81.62510 (Kcal/Mol)
 Warning -- explicit consideration of  13 degrees of freedom as
           vibrations may cause significant error
 Vibrational temperatures:     33.56   140.94   223.88   385.40   449.40
          (Kelvin)            453.53   546.98   574.87   653.57   658.11
                              715.79   726.52   807.09   935.90   946.05
                              981.01  1060.74  1208.88  1222.09  1230.40
                             1388.16  1416.26  1436.38  1476.52  1488.12
                             1622.71  1641.37  1718.13  1730.12  1888.40
                             1894.48  1959.93  2002.22  2029.51  2118.21
                             2256.83  2384.13  2418.74  4556.15  4581.21
                             4625.31  4644.68  5609.56  5626.12  5682.75

 Zero-point correction=                           0.130078 (Hartree/Particle)
 Thermal correction to Energy=                    0.139229
 Thermal correction to Enthalpy=                  0.140174
 Thermal correction to Gibbs Free Energy=         0.095005
 Sum of electronic and zero-point Energies=           -483.320656
 Sum of electronic and thermal Energies=              -483.311504
 Sum of electronic and thermal Enthalpies=            -483.310560
 Sum of electronic and thermal Free Energies=         -483.355729

                     E (Thermal)             CV                S
                      KCal/Mol        Cal/Mol-Kelvin    Cal/Mol-Kelvin
 Total                   87.368             34.932             95.066
 Electronic               0.000              0.000              0.000
 Translational            0.889              2.981             40.679
 Rotational               0.889              2.981             29.635
 Vibrational             85.590             28.971             24.752
 Vibration     1          0.593              1.985              6.329
 Vibration     2          0.603              1.951              3.495
 Vibration     3          0.620              1.896              2.603
 Vibration     4          0.673              1.732              1.610
 Vibration     5          0.701              1.650              1.350
 Vibration     6          0.703              1.645              1.335
 Vibration     7          0.750              1.512              1.038
 Vibration     8          0.766              1.471              0.964
 Vibration     9          0.813              1.351              0.783
 Vibration    10          0.816              1.345              0.774
 Vibration    11          0.853              1.256              0.664
 Vibration    12          0.860              1.239              0.646
 Vibration    13          0.917              1.116              0.522

 Optimization completed.
    -- Stationary point found.
 Normal termination of Gaussian 16 at Wed Apr 30 05:10:53 2025.
