 Gaussian 16, Revision C.01,
 Gaussian 16:  AS64L-G16RevC.01  3-Jul-2019

 ----------------------------------------------------------------------
 # opt=(calcfc,tight) freq 6-311+g(d,p) scrf=(smd,solvent=thf) nosymm s
 cf=(qc,fermi,xqc) geom=connectivity int=ultrafine m062x
 ----------------------------------------------------------------------

 --------------------
 4-OH-ph-opt-freq-thf
 --------------------
 Symbolic Z-matrix:
 Charge =  0 Multiplicity = 2

 SCF Done:  E(UM062X) =  -306.742442350     A.U. after   16 cycles
 SCF Done:  E(UM062X) =  -306.747044729     A.U. after   14 cycles
 SCF Done:  E(UM062X) =  -306.747064116     A.U. after   12 cycles
 SCF Done:  E(UM062X) =  -306.747064208     A.U. after    8 cycles
 Optimization completed.
    -- Stationary point found.
 Normal termination of Gaussian 16 at Sun May 11 04:00:38 2025.

 ----------------------------------------------------------------------
 #N Geom=AllCheck Guess=TCheck SCRF=Check GenChk UM062X/6-311+G(d,p) Fr
 eq
 ----------------------------------------------------------------------

 Structure from the checkpoint file:  "4-OH-ph-opt-freq-thf.chk"
 --------------------
 4-OH-ph-opt-freq-thf
 --------------------
 Charge =  0 Multiplicity = 2

                          Input orientation:
 ---------------------------------------------------------------------
 Center     Atomic      Atomic             Coordinates (Angstroms)
 Number     Number       Type             X           Y           Z
 ---------------------------------------------------------------------
      1          6           0        6.173445    6.878938    5.145152
      2          6           0        5.136840    6.065783    5.539858
      3          1           0        5.244897    5.336074    6.334526
      4          6           0        3.918654    6.209629    4.875213
      5          1           0        3.062944    5.598498    5.138959
      6          6           0        3.793755    7.152443    3.853950
      7          6           0        4.873083    7.955852    3.486446
      8          1           0        4.761212    8.684644    2.689022
      9          6           0        6.097516    7.818626    4.147292
     10          1           0        6.942106    8.438890    3.868899
     11          8           0        2.580503    7.247095    3.242519
     12          1           0        2.613016    7.923292    2.555682
 ---------------------------------------------------------------------

 SCF Done:  E(UM062X) =  -306.747064208     A.U. after    1 cycles

 Alpha  occ. eigenvalues --  -19.65541 -10.61094 -10.56547 -10.55562 -10.55479
 Alpha  occ. eigenvalues --  -10.55198 -10.54874  -1.19076  -0.97155  -0.85883
 Alpha  occ. eigenvalues --   -0.83937  -0.71808  -0.68729  -0.63030  -0.56451
 Alpha  occ. eigenvalues --   -0.53303  -0.51322  -0.50171  -0.49967  -0.46599
 Alpha  occ. eigenvalues --   -0.42596  -0.41511  -0.31985  -0.30913  -0.29284
 Alpha virt. eigenvalues --    0.00814   0.01837   0.02811   0.03125   0.03466
 Alpha virt. eigenvalues --    0.05606   0.05860   0.06812   0.08784   0.08889
 Alpha virt. eigenvalues --    0.09447   0.09595   0.10712   0.13972   0.14266

  Beta  occ. eigenvalues --  -19.65559 -10.61126 -10.55619 -10.55540 -10.55463
  Beta  occ. eigenvalues --  -10.55115 -10.54791  -1.19128  -0.96271  -0.85492
  Beta  occ. eigenvalues --   -0.82553  -0.71318  -0.67546  -0.62788  -0.55513
  Beta  occ. eigenvalues --   -0.52134  -0.50407  -0.50018  -0.49242  -0.46007
  Beta  occ. eigenvalues --   -0.41766  -0.41096  -0.31994  -0.28130
  Beta virt. eigenvalues --   -0.05308   0.00727   0.01764   0.03234   0.03572
  Beta virt. eigenvalues --    0.03805   0.05682   0.06725   0.06737   0.08682
  Beta virt. eigenvalues --    0.09454   0.09600   0.09762   0.10454   0.14044

 Mulliken charges and spin densities:
               1          2
     1  C    0.323696   0.832713
     2  C   -0.579157   0.057057
     3  H    0.207367   0.016156
     4  C    0.313862   0.014323
     5  H    0.195953   0.003924
     6  C   -0.478492  -0.023504
     7  C    0.234040   0.021557
     8  H    0.190043   0.003654
     9  C   -0.592663   0.061090
    10  H    0.206942   0.016522
    11  O   -0.310643  -0.003975
    12  H    0.289052   0.000484
 Sum of Mulliken charges =   0.00000   1.00000

 Dipole moment (field-independent basis, Debye):
    X=             -0.0958    Y=              1.3385    Z=             -1.4315  Tot=              1.9621
 Quadrupole moment (field-independent basis, Debye-Ang):
   XX=            -44.2553   YY=            -18.7293   ZZ=            -49.4425
   XY=              5.8299   XZ=             -6.5818   YZ=            -11.9349

  Exact polarizability:     103.184       9.839      83.042      10.815     -25.768      85.034
 Approx polarizability:     101.199       9.637      80.381      10.575     -24.082      82.197

                      1                      2                      3
                      A                      A                      A
 Frequencies --    244.0718               309.8235               409.9283
 Red. masses --      5.5964                 1.1159                 2.9029
 Frc consts  --      0.1964                 0.0631                 0.2874
 IR Inten    --      0.0050               166.0885                 1.1146

                      4                      5                      6
                      A                      A                      A
 Frequencies --    414.0621               492.2057               541.2926
 Red. masses --      4.0241                 2.8297                 8.2795
 Frc consts  --      0.4065                 0.4039                 1.4293
 IR Inten    --     13.3714                39.7855                 0.7026

                      7                      8                      9
                      A                      A                      A
 Frequencies --    613.4068               677.2609               814.5495
 Red. masses --      7.0697                 3.4323                 1.3754
 Frc consts  --      1.5673                 0.9276                 0.5377
 IR Inten    --      0.3460                 2.9409                52.3791

                     10                     11                     12
                      A                      A                      A
 Frequencies --    821.0819               827.2998               939.5927
 Red. masses --      5.5411                 1.4590                 1.3212
 Frc consts  --      2.2010                 0.5884                 0.6872
 IR Inten    --     37.2579                69.9579                 0.3590

                     13                     14                     15
                      A                      A                      A
 Frequencies --    976.1294               995.7404              1056.3934
 Red. masses --      1.3599                 5.9390                 2.0816
 Frc consts  --      0.7634                 3.4694                 1.3687
 IR Inten    --      0.0073                 0.0776                17.8809

                     16                     17                     18
                      A                      A                      A
 Frequencies --   1103.2851              1166.5011              1193.2295
 Red. masses --      1.3036                 1.1150                 1.4212
 Frc consts  --      0.9349                 0.8939                 1.1922
 IR Inten    --     27.3712                10.4408               180.6573

                     19                     20                     21
                      A                      A                      A
 Frequencies --   1301.8949              1307.1581              1325.4826
 Red. masses --      3.6419                 1.3655                 3.9928
 Frc consts  --      3.6369                 1.3747                 4.1330
 IR Inten    --    157.9881                 4.7391                15.2282

                     22                     23                     24
                      A                      A                      A
 Frequencies --   1447.1027              1503.2539              1629.7522
 Red. masses --      2.7697                 2.7193                 6.0160
 Frc consts  --      3.4173                 3.6205                 9.4145
 IR Inten    --     46.1061                72.5090               136.6658

                     25                     26                     27
                      A                      A                      A
 Frequencies --   1670.9033              3187.3675              3204.4886
 Red. masses --      7.0473                 1.0904                 1.0883
 Frc consts  --     11.5925                 6.5270                 6.5844
 IR Inten    --      4.7113                 4.1904                 0.2950

                     28                     29                     30
                      A                      A                      A
 Frequencies --   3210.9592              3219.4533              3836.6242
 Red. masses --      1.0937                 1.0959                 1.0664
 Frc consts  --      6.6439                 6.6925                 9.2482
 IR Inten    --      0.1883                 0.7541               183.4049

 - Thermochemistry -
 -------------------
 Temperature   298.150 Kelvin.  Pressure   1.00000 Atm.
 Atom     1 has atomic number  6 and mass  12.00000

 Molecular mass:    93.03404 amu.
 Principal axes and moments of inertia in atomic units:
                           1         2         3
     Eigenvalues --   322.61098 643.34654 965.95737
           X            0.87446   0.39339  -0.28383
           Y           -0.10071   0.71959   0.68706
           Z            0.47453  -0.57222   0.66887
 This molecule is an asymmetric top.
 Rotational symmetry number  1.
 Rotational temperatures (Kelvin)      0.26848     0.13463     0.08967
 Rotational constants (GHZ):           5.59417     2.80524     1.86834
 Zero-point vibrational energy     241886.7 (Joules/Mol)
                                   57.81230 (Kcal/Mol)
 Warning -- explicit consideration of   7 degrees of freedom as
           vibrations may cause significant error
 Vibrational temperatures:    351.16   445.77   589.80   595.74   708.17
          (Kelvin)            778.80   882.56   974.43  1171.96  1181.35
                             1190.30  1351.86  1404.43  1432.65  1519.91
                             1587.38  1678.33  1716.79  1873.14  1880.71
                             1907.07  2082.06  2162.85  2344.85  2404.06
                             4585.91  4610.54  4619.85  4632.08  5520.05

 Zero-point correction=                           0.092130 (Hartree/Particle)
 Thermal correction to Energy=                    0.097642
 Thermal correction to Enthalpy=                  0.098586
 Thermal correction to Gibbs Free Energy=         0.062530
 Sum of electronic and zero-point Energies=           -306.654934
 Sum of electronic and thermal Energies=              -306.649422
 Sum of electronic and thermal Enthalpies=            -306.648478
 Sum of electronic and thermal Free Energies=         -306.684535

                     E (Thermal)             CV                S
                      KCal/Mol        Cal/Mol-Kelvin    Cal/Mol-Kelvin
 Total                   61.271             21.379             75.887
 Electronic               0.000              0.000              1.377
 Translational            0.889              2.981             39.503
 Rotational               0.889              2.981             26.797
 Vibrational             59.494             15.417              8.210
 Vibration     1          0.659              1.773              1.773
 Vibration     2          0.699              1.655              1.363
 Vibration     3          0.774              1.449              0.927
 Vibration     4          0.778              1.440              0.912
 Vibration     5          0.848              1.267              0.678
 Vibration     6          0.896              1.159              0.563
 Vibration     7          0.973              1.003              0.427

 Optimization completed.
    -- Stationary point found.
 Normal termination of Gaussian 16 at Sun May 11 04:01:36 2025.
