 Gaussian 16, Revision C.01,
 Gaussian 16:  AS64L-G16RevC.01  3-Jul-2019

 ----------------------------------------------------------------------
 # opt=(calcfc,tight) freq 6-311+g(d,p) scrf=(smd,solvent=thf) nosymm s
 cf=(qc,fermi,xqc) geom=connectivity int=ultrafine m062x
 ----------------------------------------------------------------------

 ------------------------
 4-OH-phboh2-opt-freq-thf
 ------------------------
 Symbolic Z-matrix:
 Charge =  0 Multiplicity = 1

 SCF Done:  E(RM062X) =  -483.467220812     A.U. after   13 cycles
 SCF Done:  E(RM062X) =  -483.467303206     A.U. after   10 cycles
 SCF Done:  E(RM062X) =  -483.467304166     A.U. after    9 cycles
 SCF Done:  E(RM062X) =  -483.467287731     A.U. after   11 cycles
 SCF Done:  E(RM062X) =  -483.467303933     A.U. after   11 cycles
 SCF Done:  E(RM062X) =  -483.467306071     A.U. after    9 cycles
 SCF Done:  E(RM062X) =  -483.437576189     A.U. after   13 cycles
 SCF Done:  E(RM062X) =  -483.467307577     A.U. after    9 cycles
 SCF Done:  E(RM062X) =  -483.467305656     A.U. after   10 cycles
 SCF Done:  E(RM062X) =  -483.467309646     A.U. after   10 cycles
 SCF Done:  E(RM062X) =  -483.467301063     A.U. after   10 cycles
 SCF Done:  E(RM062X) =  -483.467310565     A.U. after   10 cycles
 SCF Done:  E(RM062X) =  -483.467310817     A.U. after    9 cycles
 SCF Done:  E(RM062X) =  -483.467310849     A.U. after    8 cycles
 SCF Done:  E(RM062X) =  -483.467310852     A.U. after    6 cycles
 SCF Done:  E(RM062X) =  -483.467310853     A.U. after    5 cycles
 Optimization completed.
    -- Stationary point found.
 Normal termination of Gaussian 16 at Fri May  2 03:32:57 2025.

 ----------------------------------------------------------------------
 #N Geom=AllCheck Guess=TCheck SCRF=Check GenChk RM062X/6-311+G(d,p) Fr
 eq
 ----------------------------------------------------------------------

 Structure from the checkpoint file:  "4-OH-phboh2-opt-freq-thf.chk"
 ------------------------
 4-OH-phboh2-opt-freq-thf
 ------------------------
 Charge =  0 Multiplicity = 1

                          Input orientation:
 ---------------------------------------------------------------------
 Center     Atomic      Atomic             Coordinates (Angstroms)
 Number     Number       Type             X           Y           Z
 ---------------------------------------------------------------------
      1          8           0        8.629684    7.606557    5.546604
      2          1           0        9.443639    7.440767    6.035651
      3          6           0        6.249369    6.870905    5.180720
      4          5           0        7.632363    6.740022    5.896391
      5          8           0        7.915846    5.806492    6.857657
      6          1           0        7.190746    5.207040    7.056825
      7          6           0        5.141028    6.082638    5.521494
      8          1           0        5.210401    5.343840    6.315523
      9          6           0        3.921946    6.212678    4.872653
     10          1           0        3.069823    5.600129    5.143023
     11          6           0        3.787784    7.151949    3.850719
     12          6           0        4.870347    7.953133    3.487947
     13          1           0        4.760130    8.682864    2.691398
     14          6           0        6.080826    7.807296    4.152379
     15          1           0        6.917069    8.435397    3.864751
     16          8           0        2.579123    7.245845    3.241771
     17          1           0        2.610125    7.923090    2.555141
 ---------------------------------------------------------------------

 SCF Done:  E(RM062X) =  -483.467310853     A.U. after    1 cycles

 Alpha  occ. eigenvalues --  -19.65914 -19.63364 -19.62802 -10.61394 -10.55241
 Alpha  occ. eigenvalues --  -10.54894 -10.54415 -10.54194 -10.52482  -7.08053
 Alpha  occ. eigenvalues --   -1.19537  -1.16376  -1.12680  -0.96088  -0.85149
 Alpha  occ. eigenvalues --   -0.83913  -0.71788  -0.69186  -0.65113  -0.62859
 Alpha  occ. eigenvalues --   -0.62428  -0.55770  -0.54898  -0.51463  -0.50200
 Alpha  occ. eigenvalues --   -0.49296  -0.47542  -0.47270  -0.46395  -0.45312
 Alpha  occ. eigenvalues --   -0.41402  -0.40214  -0.39951  -0.38936  -0.31624
 Alpha  occ. eigenvalues --   -0.28712
 Alpha virt. eigenvalues --    0.00127   0.00612   0.01301   0.01752   0.02162
 Alpha virt. eigenvalues --    0.03191   0.03695   0.04401   0.05279   0.07599
 Alpha virt. eigenvalues --    0.07720   0.08037   0.09420   0.10814   0.11635

 Mulliken charges:
               1
     1  O   -0.410159
     2  H    0.328385
     3  C   -0.255949
     4  B    0.501867
     5  O   -0.405486
     6  H    0.281830
     7  C   -0.417824
     8  H    0.173339
     9  C    0.317844
    10  H    0.189145
    11  C   -0.379674
    12  C    0.230236
    13  H    0.185665
    14  C   -0.525212
    15  H    0.198435
    16  O   -0.305486
    17  H    0.293044
 Sum of Mulliken charges =   0.00000

 Dipole moment (field-independent basis, Debye):
    X=             -0.6113    Y=             -0.0006    Z=             -0.5068  Tot=              0.7940
 Quadrupole moment (field-independent basis, Debye-Ang):
   XX=            -65.7601   YY=            -54.0874   ZZ=            -56.6552
   XY=             -6.3645   XZ=             -2.4688   YZ=            -12.5392

  Exact polarizability:     141.532       9.002     100.819      22.262     -29.598     106.886
 Approx polarizability:     133.791       9.442      99.583      17.930     -26.607     103.566

                      1                      2                      3
                      A                      A                      A
 Frequencies --     36.7299                97.6666               161.6211
 Red. masses --      4.6495                 6.4669                 5.7240
 Frc consts  --      0.0037                 0.0363                 0.0881
 IR Inten    --      7.0198                 0.3624                 6.8147

                      4                      5                      6
                      A                      A                      A
 Frequencies --    268.7597               314.5149               348.9929
 Red. masses --      4.9344                 6.7660                 1.1165
 Frc consts  --      0.2100                 0.3943                 0.0801
 IR Inten    --      0.0676                 5.0798               160.2806

                      7                      8                      9
                      A                      A                      A
 Frequencies --    379.7756               408.1919               456.8259
 Red. masses --      5.4441                 2.5453                 3.7531
 Frc consts  --      0.4626                 0.2499                 0.4615
 IR Inten    --      0.2198                15.0229                27.2239

                     10                     11                     12
                      A                      A                      A
 Frequencies --    466.0496               492.3657               505.3719
 Red. masses --      1.2003                 1.9049                 4.1355
 Frc consts  --      0.1536                 0.2721                 0.6223
 IR Inten    --    237.8476                25.3171                61.4253

                     13                     14                     15
                      A                      A                      A
 Frequencies --    546.5858               647.3048               649.0826
 Red. masses --      1.4714                 5.0172                 5.5378
 Frc consts  --      0.2590                 1.2386                 1.3746
 IR Inten    --      0.1754                75.4281                53.9181

                     16                     17                     18
                      A                      A                      A
 Frequencies --    681.4127               738.8080               844.0531
 Red. masses --      5.2007                 5.0009                 1.2583
 Frc consts  --      1.4228                 1.6083                 0.5282
 IR Inten    --     12.6664                29.3072                 0.0256

                     19                     20                     21
                      A                      A                      A
 Frequencies --    852.7779               855.9021               969.1119
 Red. masses --      1.7836                 5.6427                 1.3034
 Frc consts  --      0.7642                 2.4355                 0.7212
 IR Inten    --     70.7983                25.6973                 0.3119

                     22                     23                     24
                      A                      A                      A
 Frequencies --    991.7247              1002.0308              1024.3500
 Red. masses --      1.5605                 1.3650                 1.6293
 Frc consts  --      0.9043                 0.8075                 1.0073
 IR Inten    --    138.0521                 1.3245               158.5561

                     25                     26                     27
                      A                      A                      A
 Frequencies --   1032.6814              1123.5813              1143.4327
 Red. masses --      2.1113                 1.8317                 1.7361
 Frc consts  --      1.3266                 1.3625                 1.3374
 IR Inten    --     40.7783                 2.4320               104.4564

                     28                     29                     30
                      A                      A                      A
 Frequencies --   1194.6702              1202.2856              1313.1646
 Red. masses --      1.3981                 1.1554                 2.5867
 Frc consts  --      1.1757                 0.9840                 2.6281
 IR Inten    --    257.4247                 2.4300                 6.4920

                     31                     32                     33
                      A                      A                      A
 Frequencies --   1319.4389              1367.9532              1374.7891
 Red. masses --      4.1564                 1.6498                 3.5865
 Frc consts  --      4.2633                 1.8189                 3.9938
 IR Inten    --    267.5121               165.7279               651.8865

                     34                     35                     36
                      A                      A                      A
 Frequencies --   1390.8505              1466.5348              1566.5055
 Red. masses --      6.0600                 3.1361                 2.9937
 Frc consts  --      6.9069                 3.9740                 4.3284
 IR Inten    --    390.8398                59.1044                29.6904

                     37                     38                     39
                      A                      A                      A
 Frequencies --   1653.2590              1673.9559              3170.9787
 Red. masses --      5.8508                 6.1678                 1.0905
 Frc consts  --      9.4221                10.1828                 6.4604
 IR Inten    --     58.6164               276.8433                18.4106

                     40                     41                     42
                      A                      A                      A
 Frequencies --   3188.3641              3211.1100              3220.8589
 Red. masses --      1.0908                 1.0940                 1.0943
 Frc consts  --      6.5331                 6.6465                 6.6884
 IR Inten    --      5.4650                 3.3348                 1.5554

                     43                     44                     45
                      A                      A                      A
 Frequencies --   3829.0790              3856.6001              3885.4547
 Red. masses --      1.0663                 1.0652                 1.0661
 Frc consts  --      9.2111                 9.3343                 9.4826
 IR Inten    --    214.5096               182.8222               124.5552

 - Thermochemistry -
 -------------------
 Temperature   298.150 Kelvin.  Pressure   1.00000 Atm.
 Atom     1 has atomic number  8 and mass  15.99491

 Molecular mass:   138.04882 amu.
 Principal axes and moments of inertia in atomic units:
                           1         2         3
     Eigenvalues --   491.081572437.536402927.59029
           X            0.87960   0.37589  -0.29158
           Y           -0.09319   0.73719   0.66923
           Z            0.46650  -0.56148   0.68346
 This molecule is an asymmetric top.
 Rotational symmetry number  1.
 Warning -- assumption of classical behavior for rotation
           may cause significant error
 Rotational temperatures (Kelvin)      0.17637     0.03553     0.02959
 Rotational constants (GHZ):           3.67503     0.74040     0.61646
 Zero-point vibrational energy     340490.5 (Joules/Mol)
                                   81.37917 (Kcal/Mol)
 Warning -- explicit consideration of  13 degrees of freedom as
           vibrations may cause significant error
 Vibrational temperatures:     52.85   140.52   232.54   386.69   452.52
          (Kelvin)            502.12   546.41   587.30   657.27   670.54
                              708.40   727.12   786.42   931.33   933.89
                              980.40  1062.98  1214.40  1226.96  1231.45
                             1394.34  1426.87  1441.70  1473.81  1485.80
                             1616.58  1645.14  1718.86  1729.82  1889.35
                             1898.38  1968.18  1978.01  2001.12  2110.02
                             2253.85  2378.67  2408.45  4562.33  4587.34
                             4620.07  4634.10  5509.19  5548.79  5590.30

 Zero-point correction=                           0.129686 (Hartree/Particle)
 Thermal correction to Energy=                    0.138754
 Thermal correction to Enthalpy=                  0.139698
 Thermal correction to Gibbs Free Energy=         0.095079
 Sum of electronic and zero-point Energies=           -483.337625
 Sum of electronic and thermal Energies=              -483.328557
 Sum of electronic and thermal Enthalpies=            -483.327613
 Sum of electronic and thermal Free Energies=         -483.372232

                     E (Thermal)             CV                S
                      KCal/Mol        Cal/Mol-Kelvin    Cal/Mol-Kelvin
 Total                   87.069             34.859             93.909
 Electronic               0.000              0.000              0.000
 Translational            0.889              2.981             40.679
 Rotational               0.889              2.981             29.640
 Vibrational             85.292             28.897             23.591
 Vibration     1          0.594              1.982              5.428
 Vibration     2          0.603              1.951              3.500
 Vibration     3          0.622              1.889              2.531
 Vibration     4          0.673              1.731              1.604
 Vibration     5          0.702              1.646              1.338
 Vibration     6          0.726              1.577              1.171
 Vibration     7          0.750              1.513              1.040
 Vibration     8          0.773              1.452              0.933
 Vibration     9          0.815              1.346              0.775
 Vibration    10          0.823              1.325              0.749
 Vibration    11          0.848              1.267              0.677
 Vibration    12          0.861              1.238              0.645
 Vibration    13          0.902              1.147              0.551

 Optimization completed.
    -- Stationary point found.
 Normal termination of Gaussian 16 at Fri May  2 03:34:27 2025.
