 Gaussian 16, Revision C.01,
 Gaussian 16:  AS64L-G16RevC.01  3-Jul-2019

 ----------------------------------------------------------------------
 # opt=(calcfc,tight) freq 6-311+g(d,p) scrf=(smd,solvent=thf) nosymm s
 cf=(qc,fermi,xqc) geom=connectivity int=ultrafine m062x
 ----------------------------------------------------------------------

 -------------------------
 4-OMe-phboh2-opt-freq-thf
 -------------------------
 Symbolic Z-matrix:
 Charge =  0 Multiplicity = 1

 SCF Done:  E(RM062X) =  -522.753668452     A.U. after   14 cycles
 SCF Done:  E(RM062X) =  -522.753770614     A.U. after   11 cycles
 SCF Done:  E(RM062X) =  -522.753771013     A.U. after    9 cycles
 SCF Done:  E(RM062X) =  -522.753771771     A.U. after   10 cycles
 SCF Done:  E(RM062X) =  -522.753771992     A.U. after   10 cycles
 SCF Done:  E(RM062X) =  -522.753771941     A.U. after    7 cycles
 SCF Done:  E(RM062X) =  -522.753772657     A.U. after    9 cycles
 SCF Done:  E(RM062X) =  -522.753772690     A.U. after    8 cycles
 SCF Done:  E(RM062X) =  -522.753772690     A.U. after    5 cycles
 SCF Done:  E(RM062X) =  -522.753772690     A.U. after    5 cycles
 Optimization completed.
    -- Stationary point found.
 Normal termination of Gaussian 16 at Tue Apr 22 20:45:51 2025.

 ----------------------------------------------------------------------
 #N Geom=AllCheck Guess=TCheck SCRF=Check GenChk RM062X/6-311+G(d,p) Fr
 eq
 ----------------------------------------------------------------------

 Structure from the checkpoint file:  "4-OMe-phboh2-opt-freq-thf.chk"
 -------------------------
 4-OMe-phboh2-opt-freq-thf
 -------------------------
 Charge =  0 Multiplicity = 1

                          Input orientation:
 ---------------------------------------------------------------------
 Center     Atomic      Atomic             Coordinates (Angstroms)
 Number     Number       Type             X           Y           Z
 ---------------------------------------------------------------------
      1          8           0        8.650295    7.583719    5.540328
      2          1           0        9.460693    7.413300    6.033623
      3          6           0        6.259641    6.873471    5.182983
      4          5           0        7.641307    6.733859    5.898642
      5          8           0        7.913805    5.807156    6.870255
      6          1           0        7.179268    5.222893    7.079614
      7          6           0        5.147740    6.080898    5.512756
      8          1           0        5.213887    5.331327    6.296931
      9          6           0        3.934924    6.221630    4.862548
     10          1           0        3.080314    5.607546    5.121735
     11          6           0        3.794459    7.174338    3.846214
     12          6           0        4.880506    7.979729    3.496256
     13          1           0        4.796541    8.724665    2.716173
     14          6           0        6.090094    7.818480    4.167096
     15          1           0        6.927113    8.449585    3.887587
     16          8           0        2.576714    7.242748    3.263482
     17          6           0        2.389953    8.192097    2.223317
     18          1           0        1.357400    8.081396    1.898623
     19          1           0        2.549614    9.210892    2.587134
     20          1           0        3.059373    7.990626    1.382387
 ---------------------------------------------------------------------

 SCF Done:  E(RM062X) =  -522.753772690     A.U. after    1 cycles

 Alpha  occ. eigenvalues --  -19.65727 -19.63305 -19.62735 -10.61089 -10.58209
 Alpha  occ. eigenvalues --  -10.55034 -10.54704 -10.54143 -10.54022 -10.52309
 Alpha  occ. eigenvalues --   -7.07968  -1.19808  -1.16309  -1.12606  -0.96015
 Alpha  occ. eigenvalues --   -0.85646  -0.84663  -0.78723  -0.69729  -0.68063
 Alpha  occ. eigenvalues --   -0.64657  -0.62719  -0.60688  -0.55993  -0.54901
 Alpha  occ. eigenvalues --   -0.54469  -0.51656  -0.49234  -0.48325  -0.47667
 Alpha  occ. eigenvalues --   -0.46747  -0.45237  -0.44865  -0.42662  -0.40167
 Alpha  occ. eigenvalues --   -0.39269  -0.38872  -0.38817  -0.31441  -0.28192
 Alpha virt. eigenvalues --    0.00161   0.00672   0.01588   0.01992   0.02128
 Alpha virt. eigenvalues --    0.03176   0.03598   0.03792   0.04959   0.05530
 Alpha virt. eigenvalues --    0.06398   0.07104   0.08350   0.09360   0.10040

 Mulliken charges:
               1
     1  O   -0.390459
     2  H    0.326237
     3  C   -0.288919
     4  B    0.503256
     5  O   -0.397256
     6  H    0.280037
     7  C   -0.203787
     8  H    0.172735
     9  C   -0.226893
    10  H    0.185674
    11  C   -0.410257
    12  C    0.764538
    13  H    0.193639
    14  C   -0.789551
    15  H    0.196648
    16  O   -0.154543
    17  C   -0.327844
    18  H    0.196541
    19  H    0.185224
    20  H    0.184981
 Sum of Mulliken charges =   0.00000

 Dipole moment (field-independent basis, Debye):
    X=             -1.3225    Y=              0.1595    Z=             -0.8740  Tot=              1.5932
 Quadrupole moment (field-independent basis, Debye-Ang):
   XX=            -76.6766   YY=            -58.1257   ZZ=            -65.3896
   XY=            -11.3147   XZ=             -5.6826   YZ=            -14.4527

  Exact polarizability:     160.578       4.866     115.418      28.539     -31.766     124.859
 Approx polarizability:     148.301       8.666     112.703      19.251     -26.637     116.666

                      1                      2                      3
                      A                      A                      A
 Frequencies --     22.6026                68.7960               122.0473
 Red. masses --      4.6503                 3.8718                 4.2225
 Frc consts  --      0.0014                 0.0108                 0.0371
 IR Inten    --      6.5816                 1.3483                 3.4203

                      4                      5                      6
                      A                      A                      A
 Frequencies --    143.8621               235.9679               261.6918
 Red. masses --      5.1542                 1.4678                 3.5882
 Frc consts  --      0.0628                 0.0482                 0.1448
 IR Inten    --      5.7388                 0.6306                 1.2352

                      7                      8                      9
                      A                      A                      A
 Frequencies --    296.8789               307.2662               410.9569
 Red. masses --      2.2541                 6.5135                 2.3819
 Frc consts  --      0.1171                 0.3623                 0.2370
 IR Inten    --      4.4290                 1.7010                27.4294

                     10                     11                     12
                      A                      A                      A
 Frequencies --    418.8056               459.8045               475.1068
 Red. masses --      4.8939                 1.2239                 4.1245
 Frc consts  --      0.5057                 0.1525                 0.5485
 IR Inten    --     10.6023               215.4420                37.4515

                     13                     14                     15
                      A                      A                      A
 Frequencies --    492.9456               534.5425               546.6235
 Red. masses --      1.8173                 3.7667                 1.5176
 Frc consts  --      0.2602                 0.6341                 0.2672
 IR Inten    --     30.9511                45.0159                 0.0659

                     16                     17                     18
                      A                      A                      A
 Frequencies --    642.3974               650.8778               674.5077
 Red. masses --      6.8458                 4.1739                 4.9371
 Frc consts  --      1.6645                 1.0418                 1.3234
 IR Inten    --      0.9371               135.6069                 9.9172

                     19                     20                     21
                      A                      A                      A
 Frequencies --    747.9269               832.5710               841.9554
 Red. masses --      4.6524                 5.5295                 1.2532
 Frc consts  --      1.5334                 2.2583                 0.5234
 IR Inten    --     22.9457                18.6908                 0.0361

                     22                     23                     24
                      A                      A                      A
 Frequencies --    851.5864               971.2327               991.1171
 Red. masses --      1.7844                 1.3155                 1.5709
 Frc consts  --      0.7624                 0.7311                 0.9092
 IR Inten    --     80.5654                 0.1830               139.6245

                     25                     26                     27
                      A                      A                      A
 Frequencies --   1001.4155              1022.7597              1029.7783
 Red. masses --      1.3651                 1.9874                 1.7344
 Frc consts  --      0.8066                 1.2249                 1.0837
 IR Inten    --      0.3831               110.0884               109.6461

                     28                     29                     30
                      A                      A                      A
 Frequencies --   1085.6348              1129.8343              1146.3728
 Red. masses --      6.3988                 1.8231                 1.6819
 Frc consts  --      4.4434                 1.3712                 1.3022
 IR Inten    --     99.5793                 3.9166                68.3535

                     31                     32                     33
                      A                      A                      A
 Frequencies --   1182.8804              1203.3639              1213.0212
 Red. masses --      1.2783                 1.1769                 1.4007
 Frc consts  --      1.0538                 1.0041                 1.2143
 IR Inten    --      1.4145                95.2666                 5.4670

                     34                     35                     36
                      A                      A                      A
 Frequencies --   1296.4083              1330.1468              1340.2080
 Red. masses --      5.5243                 4.5198                 1.3521
 Frc consts  --      5.4703                 4.7116                 1.4309
 IR Inten    --    220.4886               369.5756                 6.4118

                     37                     38                     39
                      A                      A                      A
 Frequencies --   1373.9757              1390.3756              1451.2841
 Red. masses --      4.0259                 5.9816                 3.4069
 Frc consts  --      4.4778                 6.8129                 4.2278
 IR Inten    --    832.4990               349.5248                87.8647

                     40                     41                     42
                      A                      A                      A
 Frequencies --   1487.9426              1498.1404              1502.8249
 Red. masses --      1.1997                 1.0412                 1.0567
 Frc consts  --      1.5650                 1.3769                 1.4061
 IR Inten    --      4.0208                16.2556                31.4563

                     43                     44                     45
                      A                      A                      A
 Frequencies --   1565.3731              1634.9193              1671.6728
 Red. masses --      2.7602                 6.6262                 6.0195
 Frc consts  --      3.9850                10.4353                 9.9109
 IR Inten    --     51.5467                47.9420               312.9758

                     46                     47                     48
                      A                      A                      A
 Frequencies --   3054.1082              3125.6731              3169.6909
 Red. masses --      1.0338                 1.1074                 1.0904
 Frc consts  --      5.6813                 6.3744                 6.4545
 IR Inten    --     48.0007                30.2092                20.5584

                     49                     50                     51
                      A                      A                      A
 Frequencies --   3178.6203              3204.2536              3219.6383
 Red. masses --      1.1024                 1.0903                 1.0941
 Frc consts  --      6.5626                 6.5954                 6.6819
 IR Inten    --     17.0084                 3.8471                 1.8601

                     52                     53                     54
                      A                      A                      A
 Frequencies --   3235.9478              3856.7173              3886.3220
 Red. masses --      1.0931                 1.0652                 1.0661
 Frc consts  --      6.7442                 9.3349                 9.4866
 IR Inten    --      2.1333               186.9498               126.1625

 - Thermochemistry -
 -------------------
 Temperature   298.150 Kelvin.  Pressure   1.00000 Atm.
 Atom     1 has atomic number  8 and mass  15.99491

 Molecular mass:   152.06447 amu.
 Principal axes and moments of inertia in atomic units:
                           1         2         3
     Eigenvalues --   547.328953338.315863873.68078
           X            0.84340   0.45248  -0.28970
           Y           -0.15909   0.72534   0.66975
           Z            0.51319  -0.51878   0.68374
 This molecule is an asymmetric top.
 Rotational symmetry number  1.
 Warning -- assumption of classical behavior for rotation
           may cause significant error
 Rotational temperatures (Kelvin)      0.15825     0.02595     0.02236
 Rotational constants (GHZ):           3.29736     0.54061     0.46590
 Zero-point vibrational energy     415650.7 (Joules/Mol)
                                   99.34291 (Kcal/Mol)
 Warning -- explicit consideration of  15 degrees of freedom as
           vibrations may cause significant error
 Vibrational temperatures:     32.52    98.98   175.60   206.99   339.51
          (Kelvin)            376.52   427.14   442.09   591.28   602.57
                              661.56   683.57   709.24   769.09   786.47
                              924.27   936.47   970.47  1076.10  1197.88
                             1211.39  1225.24  1397.39  1426.00  1440.81
                             1471.52  1481.62  1561.99  1625.58  1649.37
                             1701.90  1731.37  1745.27  1865.24  1913.78
                             1928.26  1976.84  2000.44  2088.07  2140.82
                             2155.49  2162.23  2252.22  2352.28  2405.16
                             4394.18  4497.15  4560.48  4573.33  4610.21
                             4632.34  4655.81  5548.96  5591.55

 Zero-point correction=                           0.158313 (Hartree/Particle)
 Thermal correction to Energy=                    0.168775
 Thermal correction to Enthalpy=                  0.169719
 Thermal correction to Gibbs Free Energy=         0.121289
 Sum of electronic and zero-point Energies=           -522.595460
 Sum of electronic and thermal Energies=              -522.584997
 Sum of electronic and thermal Enthalpies=            -522.584053
 Sum of electronic and thermal Free Energies=         -522.632483

                     E (Thermal)             CV                S
                      KCal/Mol        Cal/Mol-Kelvin    Cal/Mol-Kelvin
 Total                  105.908             39.350            101.929
 Electronic               0.000              0.000              0.000
 Translational            0.889              2.981             40.967
 Rotational               0.889              2.981             30.338
 Vibrational            104.131             33.389             30.624
 Vibration     1          0.593              1.985              6.391
 Vibration     2          0.598              1.969              4.188
 Vibration     3          0.610              1.931              3.068
 Vibration     4          0.616              1.909              2.752
 Vibration     5          0.655              1.786              1.833
 Vibration     6          0.669              1.743              1.650
 Vibration     7          0.691              1.680              1.434
 Vibration     8          0.697              1.660              1.377
 Vibration     9          0.775              1.446              0.923
 Vibration    10          0.782              1.429              0.896
 Vibration    11          0.818              1.339              0.767
 Vibration    12          0.832              1.305              0.723
 Vibration    13          0.849              1.266              0.676
 Vibration    14          0.890              1.174              0.577
 Vibration    15          0.902              1.147              0.551

 Optimization completed.
    -- Stationary point found.
 Normal termination of Gaussian 16 at Tue Apr 22 20:47:55 2025.
