 Gaussian 16, Revision C.01,
 Gaussian 16:  AS64L-G16RevC.01  3-Jul-2019

 ----------------------------------------------------------------------
 # opt=(calcfc,tight) freq 6-311+g(d,p) nosymm scf=(qc,fermi,xqc) geom=
 connectivity int=ultrafine m062x
 ----------------------------------------------------------------------

 ---------------------
 4-OMe-phboh2-opt-freq
 ---------------------
 Symbolic Z-matrix:
 Charge =  0 Multiplicity = 1

 SCF Done:  E(RM062X) =  -522.729382429     A.U. after   14 cycles
 SCF Done:  E(RM062X) =  -522.733289259     A.U. after   12 cycles
 SCF Done:  E(RM062X) =  -522.733645833     A.U. after   13 cycles
 SCF Done:  E(RM062X) =  -522.615310217     A.U. after   14 cycles
 SCF Done:  E(RM062X) =  -522.735236005     A.U. after   15 cycles
 SCF Done:  E(RM062X) =  -522.712847264     A.U. after   15 cycles
 SCF Done:  E(RM062X) =  -522.738029212     A.U. after   14 cycles
 SCF Done:  E(RM062X) =  -522.737337659     A.U. after   14 cycles
 SCF Done:  E(RM062X) =  -522.731400606     A.U. after   14 cycles
 SCF Done:  E(RM062X) =  -522.731603962     A.U. after   13 cycles
 SCF Done:  E(RM062X) =  -522.739047354     A.U. after    8 cycles
 SCF Done:  E(RM062X) =  -522.739047508     A.U. after    9 cycles
 SCF Done:  E(RM062X) =  -522.739047591     A.U. after    9 cycles
 SCF Done:  E(RM062X) =  -522.739047026     A.U. after   11 cycles
 SCF Done:  E(RM062X) =  -522.739047659     A.U. after   11 cycles
 SCF Done:  E(RM062X) =  -522.739047691     A.U. after    8 cycles
 SCF Done:  E(RM062X) =  -522.739047713     A.U. after    9 cycles
 SCF Done:  E(RM062X) =  -522.739047714     A.U. after    7 cycles
 SCF Done:  E(RM062X) =  -522.739047715     A.U. after    6 cycles
 Optimization completed.
    -- Stationary point found.
 Normal termination of Gaussian 16 at Mon Apr 21 18:12:54 2025.

 ----------------------------------------------------------------------
 #N Geom=AllCheck Guess=TCheck SCRF=Check GenChk RM062X/6-311+G(d,p) Fr
 eq
 ----------------------------------------------------------------------

 Structure from the checkpoint file:  "4-OMe-phboh2-opt-freq.chk"
 ---------------------
 4-OMe-phboh2-opt-freq
 ---------------------
 Charge =  0 Multiplicity = 1

                          Input orientation:
 ---------------------------------------------------------------------
 Center     Atomic      Atomic             Coordinates (Angstroms)
 Number     Number       Type             X           Y           Z
 ---------------------------------------------------------------------
      1          8           0        8.666976    7.530645    5.478809
      2          1           0        9.467602    7.378460    5.988610
      3          6           0        6.260349    6.862668    5.175479
      4          5           0        7.640289    6.732129    5.892222
      5          8           0        7.894844    5.862804    6.921118
      6          1           0        7.140400    5.337038    7.190707
      7          6           0        5.154045    6.057321    5.487008
      8          1           0        5.226232    5.291461    6.255088
      9          6           0        3.942583    6.198486    4.836703
     10          1           0        3.088712    5.576837    5.075923
     11          6           0        3.800802    7.166441    3.837290
     12          6           0        4.881817    7.982073    3.502086
     13          1           0        4.795625    8.736553    2.731955
     14          6           0        6.091041    7.818533    4.171973
     15          1           0        6.930162    8.453124    3.908985
     16          8           0        2.580017    7.235957    3.253471
     17          6           0        2.386799    8.198851    2.237445
     18          1           0        1.355819    8.087562    1.910099
     19          1           0        2.540591    9.212286    2.620143
     20          1           0        3.058937    8.021124    1.392569
 ---------------------------------------------------------------------

 SCF Done:  E(RM062X) =  -522.739047715     A.U. after    1 cycles

 Alpha  occ. eigenvalues --  -19.66164 -19.63559 -19.62742 -10.61272 -10.59691
 Alpha  occ. eigenvalues --  -10.55401 -10.54792 -10.54495 -10.54277 -10.52350
 Alpha  occ. eigenvalues --   -7.08013  -1.20377  -1.16572  -1.12841  -0.96239
 Alpha  occ. eigenvalues --   -0.86110  -0.84993  -0.79487  -0.70109  -0.68517
 Alpha  occ. eigenvalues --   -0.65004  -0.63123  -0.61275  -0.56489  -0.55842
 Alpha  occ. eigenvalues --   -0.54920  -0.52219  -0.49745  -0.48955  -0.47771
 Alpha  occ. eigenvalues --   -0.47096  -0.45314  -0.45271  -0.43396  -0.40254
 Alpha  occ. eigenvalues --   -0.39611  -0.39368  -0.39011  -0.31468  -0.28321
 Alpha virt. eigenvalues --   -0.00166   0.00686   0.01205   0.01509   0.01752
 Alpha virt. eigenvalues --    0.03191   0.03279   0.03381   0.04599   0.05045
 Alpha virt. eigenvalues --    0.05903   0.06619   0.07843   0.09384   0.09992

 Mulliken charges:
               1
     1  O   -0.358367
     2  H    0.304275
     3  C   -0.274597
     4  B    0.471764
     5  O   -0.362143
     6  H    0.250362
     7  C   -0.143657
     8  H    0.124034
     9  C   -0.164957
    10  H    0.157994
    11  C   -0.463546
    12  C    0.867261
    13  H    0.155099
    14  C   -0.835236
    15  H    0.180805
    16  O   -0.127912
    17  C   -0.296990
    18  H    0.182393
    19  H    0.166608
    20  H    0.166809
 Sum of Mulliken charges =   0.00000

 Dipole moment (field-independent basis, Debye):
    X=             -1.0806    Y=              0.2626    Z=             -0.5672  Tot=              1.2483
 Quadrupole moment (field-independent basis, Debye-Ang):
   XX=            -74.3939   YY=            -57.7690   ZZ=            -64.0561
   XY=             -8.1524   XZ=             -3.6888   YZ=            -10.1495

  Exact polarizability:     127.681       1.503      86.750      26.144     -23.480      96.569
 Approx polarizability:     147.788       9.110     112.884      19.242     -27.369     116.264

                      1                      2                      3
                      A                      A                      A
 Frequencies --     22.7020                70.6484               121.3226
 Red. masses --      4.3805                 3.7968                 4.4856
 Frc consts  --      0.0013                 0.0112                 0.0389
 IR Inten    --      5.5927                 0.8643                 2.1158

                      4                      5                      6
                      A                      A                      A
 Frequencies --    140.1958               243.9423               264.3752
 Red. masses --      5.2090                 1.5886                 3.5711
 Frc consts  --      0.0603                 0.0557                 0.1471
 IR Inten    --      3.7029                 0.5809                 1.3309

                      7                      8                      9
                      A                      A                      A
 Frequencies --    301.3109               307.7556               403.6875
 Red. masses --      2.0218                 6.2355                 2.1126
 Frc consts  --      0.1082                 0.3480                 0.2028
 IR Inten    --      2.3867                 1.5283                30.7704

                     10                     11                     12
                      A                      A                      A
 Frequencies --    419.8413               456.2711               473.8675
 Red. masses --      4.7703                 1.3807                 4.2234
 Frc consts  --      0.4954                 0.1694                 0.5588
 IR Inten    --      8.5706                95.5570                26.6996

                     13                     14                     15
                      A                      A                      A
 Frequencies --    499.9882               534.9606               562.0345
 Red. masses --      2.0476                 3.7545                 1.3788
 Frc consts  --      0.3016                 0.6331                 0.2566
 IR Inten    --     47.7806                32.2578                 5.8191

                     16                     17                     18
                      A                      A                      A
 Frequencies --    645.0946               662.3965               675.5413
 Red. masses --      6.8611                 3.7507                 4.9441
 Frc consts  --      1.6823                 0.9696                 1.3293
 IR Inten    --      0.5005               103.5459                 6.7899

                     19                     20                     21
                      A                      A                      A
 Frequencies --    748.6502               833.2020               842.7142
 Red. masses --      4.8704                 5.6001                 1.2616
 Frc consts  --      1.6083                 2.2906                 0.5279
 IR Inten    --     23.2021                13.0017                 1.4014

                     22                     23                     24
                      A                      A                      A
 Frequencies --    851.6897               968.4604               985.6532
 Red. masses --      1.7276                 1.3093                 1.4698
 Frc consts  --      0.7383                 0.7235                 0.8413
 IR Inten    --     44.2989                 0.2125               109.0432

                     25                     26                     27
                      A                      A                      A
 Frequencies --    999.8939              1025.4117              1033.1709
 Red. masses --      1.3547                 2.1549                 1.7334
 Frc consts  --      0.7980                 1.3350                 1.0902
 IR Inten    --      0.3620                85.1909                86.7190

                     28                     29                     30
                      A                      A                      A
 Frequencies --   1105.7487              1134.4764              1147.9685
 Red. masses --      6.1345                 1.7092                 1.7652
 Frc consts  --      4.4192                 1.2961                 1.3706
 IR Inten    --     61.6335                 5.4221                33.4539

                     31                     32                     33
                      A                      A                      A
 Frequencies --   1184.4151              1208.3819              1215.3367
 Red. masses --      1.2793                 1.1664                 1.4141
 Frc consts  --      1.0573                 1.0035                 1.2306
 IR Inten    --      0.8995                51.4059                 9.5112

                     34                     35                     36
                      A                      A                      A
 Frequencies --   1299.8680              1333.2449              1337.9344
 Red. masses --      5.7988                 2.2097                 1.9621
 Frc consts  --      5.7728                 2.3143                 2.0694
 IR Inten    --    134.0772               144.4936                76.9982

                     37                     38                     39
                      A                      A                      A
 Frequencies --   1391.6495              1410.2321              1457.7067
 Red. masses --      4.0007                 5.7665                 3.6106
 Frc consts  --      4.5650                 6.7568                 4.5203
 IR Inten    --    655.9329               231.3314                87.3716

                     40                     41                     42
                      A                      A                      A
 Frequencies --   1486.8007              1507.3264              1517.9541
 Red. masses --      1.1988                 1.0428                 1.0540
 Frc consts  --      1.5613                 1.3959                 1.4309
 IR Inten    --      3.1182                10.8198                24.2204

                     43                     44                     45
                      A                      A                      A
 Frequencies --   1569.3543              1640.2241              1679.3289
 Red. masses --      2.8800                 6.8558                 6.0921
 Frc consts  --      4.1791                10.8670                10.1224
 IR Inten    --     25.0297                31.3048               212.7720

                     46                     47                     48
                      A                      A                      A
 Frequencies --   3044.6320              3110.4268              3165.3689
 Red. masses --      1.0347                 1.1063                 1.0890
 Frc consts  --      5.6514                 6.3061                 6.4289
 IR Inten    --     40.6419                26.6737                23.4730

                     49                     50                     51
                      A                      A                      A
 Frequencies --   3177.2152              3208.0933              3226.3465
 Red. masses --      1.1005                 1.0898                 1.0935
 Frc consts  --      6.5451                 6.6086                 6.7064
 IR Inten    --     16.2219                 1.2640                 1.9453

                     52                     53                     54
                      A                      A                      A
 Frequencies --   3237.1598              3910.0720              3949.1333
 Red. masses --      1.0926                 1.0653                 1.0660
 Frc consts  --      6.7459                 9.5958                 9.7950
 IR Inten    --      4.7555               109.9244                53.9239

 - Thermochemistry -
 -------------------
 Temperature   298.150 Kelvin.  Pressure   1.00000 Atm.
 Atom     1 has atomic number  8 and mass  15.99491

 Molecular mass:   152.06447 amu.
 Principal axes and moments of inertia in atomic units:
                           1         2         3
     Eigenvalues --   546.164383332.951223867.13370
           X            0.84362   0.45475  -0.28550
           Y           -0.15840   0.71883   0.67690
           Z            0.51305  -0.52582   0.67845
 This molecule is an asymmetric top.
 Rotational symmetry number  1.
 Warning -- assumption of classical behavior for rotation
           may cause significant error
 Rotational temperatures (Kelvin)      0.15859     0.02599     0.02240
 Rotational constants (GHZ):           3.30439     0.54148     0.46669
 Zero-point vibrational energy     417204.7 (Joules/Mol)
                                   99.71432 (Kcal/Mol)
 Warning -- explicit consideration of  15 degrees of freedom as
           vibrations may cause significant error
 Vibrational temperatures:     32.66   101.65   174.56   201.71   350.98
          (Kelvin)            380.38   433.52   442.79   580.82   604.06
                              656.47   681.79   719.37   769.69   808.64
                              928.15   953.04   971.95  1077.14  1198.79
                             1212.48  1225.39  1393.40  1418.14  1438.62
                             1475.34  1486.50  1590.93  1632.26  1651.67
                             1704.11  1738.59  1748.60  1870.22  1918.24
                             1924.99  2002.27  2029.01  2097.31  2139.17
                             2168.71  2184.00  2257.95  2359.92  2416.18
                             4380.55  4475.21  4554.26  4571.30  4615.73
                             4641.99  4657.55  5625.72  5681.92

 Zero-point correction=                           0.158905 (Hartree/Particle)
 Thermal correction to Energy=                    0.169332
 Thermal correction to Enthalpy=                  0.170276
 Thermal correction to Gibbs Free Energy=         0.121922
 Sum of electronic and zero-point Energies=           -522.580143
 Sum of electronic and thermal Energies=              -522.569716
 Sum of electronic and thermal Enthalpies=            -522.568771
 Sum of electronic and thermal Free Energies=         -522.617126

                     E (Thermal)             CV                S
                      KCal/Mol        Cal/Mol-Kelvin    Cal/Mol-Kelvin
 Total                  106.257             39.217            101.771
 Electronic               0.000              0.000              0.000
 Translational            0.889              2.981             40.967
 Rotational               0.889              2.981             30.333
 Vibrational            104.480             33.255             30.471
 Vibration     1          0.593              1.985              6.383
 Vibration     2          0.598              1.968              4.135
 Vibration     3          0.609              1.931              3.079
 Vibration     4          0.615              1.913              2.801
 Vibration     5          0.659              1.773              1.774
 Vibration     6          0.671              1.738              1.633
 Vibration     7          0.693              1.671              1.410
 Vibration     8          0.698              1.659              1.374
 Vibration     9          0.769              1.462              0.949
 Vibration    10          0.783              1.427              0.893
 Vibration    11          0.814              1.347              0.777
 Vibration    12          0.831              1.308              0.727
 Vibration    13          0.855              1.250              0.658
 Vibration    14          0.890              1.173              0.576
 Vibration    15          0.918              1.113              0.520

 Optimization completed.
    -- Stationary point found.
 Normal termination of Gaussian 16 at Mon Apr 21 18:14:47 2025.
