 Gaussian 16, Revision C.01,
 Gaussian 16:  AS64L-G16RevC.01  3-Jul-2019

 ----------------------------------------------------------------------
 # opt=(calcfc,tight) freq 6-311+g(d,p) scrf=(smd,solvent=thf) nosymm s
 cf=(qc,fermi,xqc) geom=connectivity int=ultrafine m062x guess=read
 ----------------------------------------------------------------------

 ------------------------
 boh2-cation-opt-freq-thf
 ------------------------
 Symbolic Z-matrix:
 Charge =  1 Multiplicity = 1

 SCF Done:  E(RM062X) =  -176.364451197     A.U. after    1 cycles
 SCF Done:  E(RM062X) =  -176.364451200     A.U. after    5 cycles
 Optimization completed.
    -- Stationary point found.
 Normal termination of Gaussian 16 at Mon Jun  2 03:18:57 2025.

 ----------------------------------------------------------------------
 #N Geom=AllCheck Guess=TCheck SCRF=Check GenChk RM062X/6-311+G(d,p) Fr
 eq
 ----------------------------------------------------------------------

 Structure from the checkpoint file:  "boh2-cation-opt-freq-thf-2.chk"
 ------------------------
 boh2-cation-opt-freq-thf
 ------------------------
 Charge =  1 Multiplicity = 1

                          Input orientation:
 ---------------------------------------------------------------------
 Center     Atomic      Atomic             Coordinates (Angstroms)
 Number     Number       Type             X           Y           Z
 ---------------------------------------------------------------------
      1          8           0        8.678985    7.416666    5.660597
      2          1           0        9.642548    7.506769    5.526722
      3          5           0        8.090060    6.420987    6.165938
      4          8           0        7.415374    5.535162    6.760227
      5          1           0        6.998180    4.754088    6.347782
 ---------------------------------------------------------------------

 SCF Done:  E(RM062X) =  -176.364451200     A.U. after    1 cycles

 Alpha  occ. eigenvalues --  -19.78522 -19.78517  -7.27877  -1.30554  -1.30356
 Alpha  occ. eigenvalues --   -0.81167  -0.79722  -0.63466  -0.63320  -0.57038
 Alpha  occ. eigenvalues --   -0.57014
 Alpha virt. eigenvalues --   -0.05621  -0.01888  -0.01809  -0.00330   0.01902
 Alpha virt. eigenvalues --    0.02341   0.08473   0.10102   0.12029   0.15022
 Alpha virt. eigenvalues --    0.17007   0.18519   0.19966   0.20095   0.21874

 Mulliken charges:
               1
     1  O   -0.270760
     2  H    0.408596
     3  B    0.724042
     4  O   -0.270852
     5  H    0.408975
 Sum of Mulliken charges =   1.00000

 Dipole moment (field-independent basis, Debye):
    X=             40.1554    Y=             29.1963    Z=             28.3164  Tot=             57.1550
 Quadrupole moment (field-independent basis, Debye-Ang):
   XX=            328.1564   YY=            168.0731   ZZ=            151.5473
   XY=            250.6559   XZ=            235.7816   YZ=            171.7645

  Exact polarizability:      16.492       6.064      19.915      -3.038      -3.994      13.888
 Approx polarizability:      15.900       5.685      19.689      -3.050      -4.221      14.054

                      1                      2                      3
                      A                      A                      A
 Frequencies --    332.7673               391.7681               399.4585
 Red. masses --      1.1835                 3.2214                 3.0737
 Frc consts  --      0.0772                 0.2913                 0.2890
 IR Inten    --    267.1360                71.5347                16.1862

                      4                      5                      6
                      A                      A                      A
 Frequencies --    714.5751               738.9057              1073.8641
 Red. masses --      1.3903                 1.3524                 8.7947
 Frc consts  --      0.4183                 0.4350                 5.9754
 IR Inten    --    574.4245               132.8601                 1.0623

                      7                      8                      9
                      A                      A                      A
 Frequencies --   2034.2612              3652.0296              3681.0362
 Red. masses --      9.4789                 1.0660                 1.0701
 Frc consts  --     23.1112                 8.3764                 8.5432
 IR Inten    --    769.1747              1223.7175               225.0977

 - Thermochemistry -
 -------------------
 Temperature   298.150 Kelvin.  Pressure   1.00000 Atm.
 Atom     1 has atomic number  8 and mass  15.99491

 Molecular mass:    45.01478 amu.
 Principal axes and moments of inertia in atomic units:
                           1         2         3
     Eigenvalues --     3.87217 208.59394 208.66924
           X            0.52652   0.70757  -0.47130
           Y            0.74505  -0.11702   0.65667
           Z           -0.40949   0.69689   0.58878
 This molecule is an asymmetric top.
 Rotational symmetry number  1.
 Rotational temperatures (Kelvin)     22.36834     0.41523     0.41508
 Rotational constants (GHZ):         466.08056     8.65193     8.64881
 Zero-point vibrational energy      77868.9 (Joules/Mol)
                                   18.61112 (Kcal/Mol)
 Warning -- explicit consideration of   3 degrees of freedom as
           vibrations may cause significant error
 Vibrational temperatures:    478.78   563.67   574.73  1028.11  1063.12
          (Kelvin)           1545.05  2926.85  5254.46  5296.19

 Zero-point correction=                           0.029659 (Hartree/Particle)
 Thermal correction to Energy=                    0.033732
 Thermal correction to Enthalpy=                  0.034677
 Thermal correction to Gibbs Free Energy=         0.005728
 Sum of electronic and zero-point Energies=           -176.334792
 Sum of electronic and thermal Energies=              -176.330719
 Sum of electronic and thermal Enthalpies=            -176.329775
 Sum of electronic and thermal Free Energies=         -176.358723

                     E (Thermal)             CV                S
                      KCal/Mol        Cal/Mol-Kelvin    Cal/Mol-Kelvin
 Total                   21.167             12.402             60.927
 Electronic               0.000              0.000              0.000
 Translational            0.889              2.981             37.339
 Rotational               0.889              2.981             19.761
 Vibrational             19.390              6.441              3.828
 Vibration     1          0.715              1.610              1.247
 Vibration     2          0.759              1.488              0.993
 Vibration     3          0.766              1.471              0.965

 Optimization completed.
    -- Stationary point found.
 Normal termination of Gaussian 16 at Mon Jun  2 03:19:03 2025.
