 Gaussian 16, Revision C.01,
 Gaussian 16:  AS64L-G16RevC.01  3-Jul-2019

 ----------------------------------------------------------------------
 # opt=(calcfc,tight) freq 6-311+g(d,p) nosymm scf=(qc,fermi,xqc) geom=
 connectivity int=ultrafine m062x
 ----------------------------------------------------------------------

 -------------
 boh2-opt-freq
 -------------
 Symbolic Z-matrix:
 Charge =  0 Multiplicity = 2

 SCF Done:  E(UM062X) =  -176.521081477     A.U. after   13 cycles
 SCF Done:  E(UM062X) =  -176.522283226     A.U. after   12 cycles
 SCF Done:  E(UM062X) =  -176.522288108     A.U. after    9 cycles
 SCF Done:  E(UM062X) =  -176.522288141     A.U. after    7 cycles
 Optimization completed.
    -- Stationary point found.
 Normal termination of Gaussian 16 at Mon May  5 08:12:48 2025.

 ----------------------------------------------------------------------
 #N Geom=AllCheck Guess=TCheck SCRF=Check GenChk UM062X/6-311+G(d,p) Fr
 eq
 ----------------------------------------------------------------------

 Structure from the checkpoint file:  "boh2-opt-freq.chk"
 -------------
 boh2-opt-freq
 -------------
 Charge =  0 Multiplicity = 2

                          Input orientation:
 ---------------------------------------------------------------------
 Center     Atomic      Atomic             Coordinates (Angstroms)
 Number     Number       Type             X           Y           Z
 ---------------------------------------------------------------------
      1          8           0        8.681535    7.456322    5.557771
      2          1           0        9.526783    7.191107    5.945385
      3          5           0        7.684772    6.592976    5.803265
      4          8           0        7.863476    5.460160    6.527248
      5          1           0        7.068582    4.933107    6.627597
 ---------------------------------------------------------------------

 SCF Done:  E(UM062X) =  -176.522288141     A.U. after    1 cycles

 Alpha  occ. eigenvalues --  -19.65834 -19.64910  -7.11169  -1.18694  -1.15360
 Alpha  occ. eigenvalues --   -0.67498  -0.64451  -0.52385  -0.49229  -0.47530
 Alpha  occ. eigenvalues --   -0.42001  -0.25928
 Alpha virt. eigenvalues --    0.01169   0.02114   0.03287   0.05146   0.07613
 Alpha virt. eigenvalues --    0.13834   0.14872   0.18305   0.19499   0.21485
 Alpha virt. eigenvalues --    0.23079   0.24051   0.26021   0.27031   0.29798

  Beta  occ. eigenvalues --  -19.65685 -19.64805  -7.10314  -1.18049  -1.14880
  Beta  occ. eigenvalues --   -0.66736  -0.63373  -0.50090  -0.48603  -0.47218
  Beta  occ. eigenvalues --   -0.42226
  Beta virt. eigenvalues --   -0.09534   0.01200   0.02145   0.02605   0.07713
  Beta virt. eigenvalues --    0.09866   0.12858   0.14944   0.16205   0.18785
  Beta virt. eigenvalues --    0.19797   0.22231   0.22573   0.24415   0.26504

 Mulliken charges and spin densities:
               1          2
     1  O   -0.303632  -0.057110
     2  H    0.276905   0.043085
     3  B    0.029533   1.073185
     4  O   -0.286225  -0.063496
     5  H    0.283419   0.004337
 Sum of Mulliken charges =   0.00000   1.00000

 Dipole moment (field-independent basis, Debye):
    X=              0.0165    Y=             -1.4508    Z=              0.8730  Tot=              1.6933
 Quadrupole moment (field-independent basis, Debye-Ang):
   XX=            -13.8032   YY=            -36.9554   ZZ=             -8.3892
   XY=             -8.4040   XZ=              6.3128   YZ=             -2.0848

  Exact polarizability:      27.109       2.825      25.913      -0.040      -2.241      22.226
 Approx polarizability:      26.795       2.396      25.709       0.189      -2.275      22.220

                      1                      2                      3
                      A                      A                      A
 Frequencies --    456.2575               462.9241               566.6508
 Red. masses --      2.9641                 1.1049                 1.4353
 Frc consts  --      0.3635                 0.1395                 0.2715
 IR Inten    --     47.1357               251.1869                17.4444

                      4                      5                      6
                      A                      A                      A
 Frequencies --    965.8084               987.9994              1218.1180
 Red. masses --      1.1797                 1.7173                 3.8686
 Frc consts  --      0.6483                 0.9877                 3.3821
 IR Inten    --     94.2387                83.1610               186.9934

                      7                      8                      9
                      A                      A                      A
 Frequencies --   1450.5588              3803.9332              3944.3698
 Red. masses --      9.2049                 1.0639                 1.0665
 Frc consts  --     11.4114                 9.0702                 9.7761
 IR Inten    --    375.1761                32.4700               153.1277

 - Thermochemistry -
 -------------------
 Temperature   298.150 Kelvin.  Pressure   1.00000 Atm.
 Atom     1 has atomic number  8 and mass  15.99491

 Molecular mass:    45.01478 amu.
 Principal axes and moments of inertia in atomic units:
                           1         2         3
     Eigenvalues --    17.15266 177.92493 195.07758
           X            0.38659   0.89407  -0.22626
           Y            0.83427  -0.23445   0.49902
           Z           -0.39311   0.38168   0.83653
 This molecule is an asymmetric top.
 Rotational symmetry number  1.
 Rotational temperatures (Kelvin)      5.04959     0.48680     0.44400
 Rotational constants (GHZ):         105.21641    10.14327     9.25140
 Zero-point vibrational energy      82881.0 (Joules/Mol)
                                   19.80903 (Kcal/Mol)
 Warning -- explicit consideration of   3 degrees of freedom as
           vibrations may cause significant error
 Vibrational temperatures:    656.45   666.04   815.28  1389.58  1421.51
          (Kelvin)           1752.60  2087.03  5473.01  5675.07

 Zero-point correction=                           0.031568 (Hartree/Particle)
 Thermal correction to Energy=                    0.035193
 Thermal correction to Enthalpy=                  0.036137
 Thermal correction to Gibbs Free Energy=         0.006663
 Sum of electronic and zero-point Energies=           -176.490720
 Sum of electronic and thermal Energies=              -176.487095
 Sum of electronic and thermal Enthalpies=            -176.486151
 Sum of electronic and thermal Free Energies=         -176.515625

                     E (Thermal)             CV                S
                      KCal/Mol        Cal/Mol-Kelvin    Cal/Mol-Kelvin
 Total                   22.084             10.833             62.035
 Electronic               0.000              0.000              1.377
 Translational            0.889              2.981             37.339
 Rotational               0.889              2.981             21.015
 Vibrational             20.307              4.872              2.304
 Vibration     1          0.814              1.347              0.777
 Vibration     2          0.821              1.332              0.758
 Vibration     3          0.923              1.103              0.511

 Optimization completed.
    -- Stationary point found.
 Normal termination of Gaussian 16 at Mon May  5 08:12:53 2025.
