 Gaussian 16, Revision C.01,
 Gaussian 16:  AS64L-G16RevC.01  3-Jul-2019

 ----------------------------------------------------------------------
 # opt=(calcfc,tight) freq 6-311+g(d,p) scrf=(smd,solvent=thf) nosymm s
 cf=(qc,fermi,xqc) geom=connectivity int=ultrafine m062x
 ----------------------------------------------------------------------

 ---------------
 ph-opt-freq-thf
 ---------------
 Symbolic Z-matrix:
 Charge = -1 Multiplicity = 1

 SCF Done:  E(RM062X) =  -231.628783406     A.U. after   16 cycles
 SCF Done:  E(RM062X) =  -231.642224642     A.U. after   13 cycles
 SCF Done:  E(RM062X) =  -231.642636750     A.U. after   13 cycles
 SCF Done:  E(RM062X) =  -231.642638931     A.U. after   10 cycles
 SCF Done:  E(RM062X) =  -231.642638952     A.U. after    8 cycles
 SCF Done:  E(RM062X) =  -231.642638954     A.U. after    7 cycles
 Optimization completed.
    -- Stationary point found.
 Normal termination of Gaussian 16 at Tue May 27 04:20:14 2025.

 ----------------------------------------------------------------------
 #N Geom=AllCheck Guess=TCheck SCRF=Check GenChk RM062X/6-311+G(d,p) Fr
 eq
 ----------------------------------------------------------------------

 Structure from the checkpoint file:  "ph-anion-opt-freq-thf.chk"
 ---------------
 ph-opt-freq-thf
 ---------------
 Charge = -1 Multiplicity = 1

                          Input orientation:
 ---------------------------------------------------------------------
 Center     Atomic      Atomic             Coordinates (Angstroms)
 Number     Number       Type             X           Y           Z
 ---------------------------------------------------------------------
      1          6           0        6.308711    6.975344    5.200801
      2          6           0        5.134682    6.189155    5.290186
      3          1           0        5.173302    5.231203    5.812275
      4          6           0        3.894308    6.548224    4.749415
      5          1           0        3.035940    5.889308    4.859939
      6          6           0        3.755742    7.754911    4.065733
      7          6           0        4.873011    8.578795    3.942539
      8          1           0        4.789466    9.525098    3.412777
      9          6           0        6.096731    8.185594    4.497469
     10          1           0        6.931000    8.876718    4.363026
     11          1           0        2.800752    8.045894    3.639640
 ---------------------------------------------------------------------

 SCF Done:  E(RM062X) =  -231.642638954     A.U. after    1 cycles

 Alpha  occ. eigenvalues --  -10.50194 -10.50101 -10.50068 -10.48771 -10.48770
 Alpha  occ. eigenvalues --  -10.44822  -0.90422  -0.79064  -0.77609  -0.62929
 Alpha  occ. eigenvalues --   -0.62012  -0.54047  -0.47093  -0.45305  -0.43426
 Alpha  occ. eigenvalues --   -0.39897  -0.39183  -0.33718  -0.26496  -0.25174
 Alpha  occ. eigenvalues --   -0.19471
 Alpha virt. eigenvalues --    0.04112   0.05347   0.05689   0.06219   0.06397
 Alpha virt. eigenvalues --    0.07568   0.08760   0.09062   0.11041   0.11557
 Alpha virt. eigenvalues --    0.11842   0.12324   0.13423   0.17220   0.17454

 Mulliken charges:
               1
     1  C   -1.060698
     2  C   -0.001765
     3  H    0.146196
     4  C   -0.251043
     5  H    0.161494
     6  C   -0.218421
     7  C   -0.250181
     8  H    0.161467
     9  C   -0.000069
    10  H    0.146281
    11  H    0.166740
 Sum of Mulliken charges =  -1.00000

 Dipole moment (field-independent basis, Debye):
    X=            -30.6359    Y=            -33.4038    Z=            -25.1319  Tot=             51.8265
 Quadrupole moment (field-independent basis, Debye-Ang):
   XX=           -238.6938   YY=           -272.1351   ZZ=           -175.0408
   XY=           -210.8931   XZ=           -161.1752   YZ=           -176.5353

  Exact polarizability:     133.116       1.326     113.026      16.469     -21.410      88.090
 Approx polarizability:     113.069       3.884     102.559      11.305     -18.577      78.723

                      1                      2                      3
                      A                      A                      A
 Frequencies --    366.5009               398.7122               602.4563
 Red. masses --      2.6253                 3.8036                 6.9435
 Frc consts  --      0.2078                 0.3563                 1.4848
 IR Inten    --      0.0035                27.6417                 1.0270

                      4                      5                      6
                      A                      A                      A
 Frequencies --    628.3067               710.0002               729.1787
 Red. masses --      6.3901                 1.2860                 2.7986
 Frc consts  --      1.4863                 0.3820                 0.8767
 IR Inten    --      0.5360                86.5171                30.4843

                      7                      8                      9
                      A                      A                      A
 Frequencies --    888.7781               917.9049               988.0987
 Red. masses --      1.2557                 1.3110                 6.9977
 Frc consts  --      0.5844                 0.6508                 4.0254
 IR Inten    --      0.0155                 0.5737                 0.1573

                     10                     11                     12
                      A                      A                      A
 Frequencies --   1001.1615              1006.0217              1011.3185
 Red. masses --      1.4416                 6.3122                 1.2584
 Frc consts  --      0.8514                 3.7639                 0.7583
 IR Inten    --      0.0193                 0.2896                 0.0030

                     13                     14                     15
                      A                      A                      A
 Frequencies --   1063.2946              1071.1261              1154.0156
 Red. masses --      1.8352                 1.7812                 1.1117
 Frc consts  --      1.2225                 1.2040                 0.8723
 IR Inten    --      0.9742                20.5123                 0.3821

                     16                     17                     18
                      A                      A                      A
 Frequencies --   1201.7752              1250.1894              1342.6881
 Red. masses --      1.1756                 5.7337                 1.3380
 Frc consts  --      1.0003                 5.2801                 1.4212
 IR Inten    --      0.0044                41.8643                 1.5355

                     19                     20                     21
                      A                      A                      A
 Frequencies --   1435.1079              1483.6830              1606.0151
 Red. masses --      1.9494                 1.9340                 4.9721
 Frc consts  --      2.3655                 2.5083                 7.5560
 IR Inten    --      7.4882                 2.3040                 1.4586

                     22                     23                     24
                      A                      A                      A
 Frequencies --   1608.1283              3097.7856              3100.7471
 Red. masses --      5.1641                 1.0861                 1.0861
 Frc consts  --      7.8683                 6.1408                 6.1524
 IR Inten    --      5.3620                85.0981                60.0669

                     25                     26                     27
                      A                      A                      A
 Frequencies --   3157.7390              3163.0736              3195.0849
 Red. masses --      1.0883                 1.0919                 1.0964
 Frc consts  --      6.3936                 6.4363                 6.5945
 IR Inten    --     14.2685                93.6710                44.7474

 - Thermochemistry -
 -------------------
 Temperature   298.150 Kelvin.  Pressure   1.00000 Atm.
 Atom     1 has atomic number  6 and mass  12.00000

 Molecular mass:    77.03913 amu.
 Principal axes and moments of inertia in atomic units:
                           1         2         3
     Eigenvalues --   307.85835 307.97742 615.83555
           X            0.87331   0.42315  -0.24139
           Y           -0.28256   0.84361   0.45659
           Z            0.39685  -0.33054   0.85630
 This molecule is an asymmetric top.
 Rotational symmetry number  1.
 Rotational temperatures (Kelvin)      0.28134     0.28123     0.14064
 Rotational constants (GHZ):           5.86225     5.85998     2.93056
 Zero-point vibrational energy     228360.5 (Joules/Mol)
                                   54.57947 (Kcal/Mol)
 Warning -- explicit consideration of   3 degrees of freedom as
           vibrations may cause significant error
 Vibrational temperatures:    527.31   573.66   866.80   903.99  1021.53
          (Kelvin)           1049.13  1278.75  1320.66  1421.65  1440.45
                             1447.44  1455.06  1529.84  1541.11  1660.37
                             1729.09  1798.74  1931.83  2064.80  2134.69
                             2310.70  2313.74  4457.02  4461.28  4543.28
                             4550.96  4597.01

 Zero-point correction=                           0.086978 (Hartree/Particle)
 Thermal correction to Energy=                    0.091366
 Thermal correction to Enthalpy=                  0.092310
 Thermal correction to Gibbs Free Energy=         0.059540
 Sum of electronic and zero-point Energies=           -231.555661
 Sum of electronic and thermal Energies=              -231.551273
 Sum of electronic and thermal Enthalpies=            -231.550329
 Sum of electronic and thermal Free Energies=         -231.583099

                     E (Thermal)             CV                S
                      KCal/Mol        Cal/Mol-Kelvin    Cal/Mol-Kelvin
 Total                   57.333             16.691             68.971
 Electronic               0.000              0.000              0.000
 Translational            0.889              2.981             38.940
 Rotational               0.889              2.981             25.571
 Vibrational             55.556             10.729              4.459
 Vibration     1          0.739              1.541              1.094
 Vibration     2          0.765              1.473              0.967
 Vibration     3          0.961              1.027              0.445

 Optimization completed.
    -- Stationary point found.
 Normal termination of Gaussian 16 at Tue May 27 04:20:42 2025.
