 Gaussian 16, Revision C.01,
 Gaussian 16:  AS64L-G16RevC.01  3-Jul-2019

 ----------------------------------------------------------------------
 # opt=(calcfc,tight) M062X/6-311+g(d,p) nosymm scf=(qc,fermi,xqc) geom
 =connectivity int=ultrafine
 ----------------------------------------------------------------------

 ------
 phboh2
 ------
 Symbolic Z-matrix:
 Charge =  0 Multiplicity = 1

 SCF Done:  E(RM062X) =  -408.132035343     A.U. after   13 cycles

  Exact polarizability:       0.000       0.000       0.000       0.000       0.000       0.000
 Approx polarizability:     118.375       3.847     104.759      13.280     -21.019      79.899

 SCF Done:  E(RM062X) =  -408.205020625     A.U. after   12 cycles
 SCF Done:  E(RM062X) =  -408.224134232     A.U. after   12 cycles
 SCF Done:  E(RM062X) =  -408.224556510     A.U. after   11 cycles
 SCF Done:  E(RM062X) =  -408.224585094     A.U. after   10 cycles
 SCF Done:  E(RM062X) =  -408.224588736     A.U. after   10 cycles
 SCF Done:  E(RM062X) =  -408.224590140     A.U. after   10 cycles
 SCF Done:  E(RM062X) =  -408.224590166     A.U. after    8 cycles
 SCF Done:  E(RM062X) =  -408.224590179     A.U. after    8 cycles
 SCF Done:  E(RM062X) =  -408.224590180     A.U. after    7 cycles
 Optimization completed.
    -- Stationary point found.

                          Input orientation:
 ---------------------------------------------------------------------
 Center     Atomic      Atomic             Coordinates (Angstroms)
 Number     Number       Type             X           Y           Z
 ---------------------------------------------------------------------
      1          8           0        8.693701    7.451595    5.541649
      2          1           0        9.502193    7.137737    5.956544
      3          6           0        6.245510    6.997434    5.171772
      4          5           0        7.641708    6.616527    5.771970
      5          8           0        7.874947    5.493847    6.519897
      6          1           0        7.099744    4.951929    6.674467
      7          6           0        5.122923    6.170805    5.288524
      8          1           0        5.190378    5.215994    5.803906
      9          6           0        3.895492    6.537926    4.748104
     10          1           0        3.038365    5.882688    4.848858
     11          6           0        3.772716    7.749791    4.075628
     12          6           0        4.877176    8.586807    3.945493
     13          1           0        4.782667    9.530279    3.420756
     14          6           0        6.100328    8.210725    4.487806
     15          1           0        6.963122    8.859535    4.386577
     16          1           0        2.817824    8.040296    3.653112
 ---------------------------------------------------------------------

 Alpha  occ. eigenvalues --  -19.63977 -19.63170 -10.55399 -10.55084 -10.54865
 Alpha  occ. eigenvalues --  -10.54621 -10.54532 -10.53188  -7.08500  -1.17010
 Alpha  occ. eigenvalues --   -1.13296  -0.96426  -0.84857  -0.84717  -0.69888
 Alpha  occ. eigenvalues --   -0.69084  -0.65398  -0.63170  -0.59351  -0.53669
 Alpha  occ. eigenvalues --   -0.52123  -0.50412  -0.49334  -0.48142  -0.45650
 Alpha  occ. eigenvalues --   -0.45145  -0.43971  -0.40632  -0.40430  -0.38410
 Alpha  occ. eigenvalues --   -0.31435  -0.31192
 Alpha virt. eigenvalues --   -0.00578  -0.00377   0.01487   0.01649   0.01916
 Alpha virt. eigenvalues --    0.03302   0.03575   0.04113   0.05310   0.07169
 Alpha virt. eigenvalues --    0.07617   0.08212   0.09481   0.11005   0.11257

 Mulliken charges:
               1
     1  O   -0.389138
     2  H    0.308536
     3  C   -0.347648
     4  B    0.476929
     5  O   -0.378544
     6  H    0.254808
     7  C   -0.151058
     8  H    0.119847
     9  C   -0.064253
    10  H    0.156502
    11  C   -0.169343
    12  C   -0.068727
    13  H    0.159135
    14  C   -0.246888
    15  H    0.180061
    16  H    0.159780
 Sum of Mulliken charges =   0.00000

 Dipole moment (field-independent basis, Debye):
    X=             -1.0098    Y=             -0.8528    Z=              0.3205  Tot=              1.3600
 Quadrupole moment (field-independent basis, Debye-Ang):
   XX=            -59.6938   YY=            -61.1741   ZZ=            -50.5899
   XY=            -11.2107   XZ=             -1.0907   YZ=             -5.8792

 Normal termination of Gaussian 16 at Wed Apr 16 13:36:39 2025.
