 Gaussian 16, Revision C.01,
 Gaussian 16:  AS64L-G16RevC.01  3-Jul-2019

 ----------------------------------------------------------------------
 # opt=(calcfc,tight) freq 6-311+g(d,p) scrf=(smd,solvent=thf) nosymm s
 cf=(qc,fermi,xqc) geom=connectivity int=ultrafine m062x
 ----------------------------------------------------------------------

 --------------------------
 2-br-ph-anion-opt-freq-thf
 --------------------------
 Symbolic Z-matrix:
 Charge = -1 Multiplicity = 1

 SCF Done:  E(RM062X) =  -2805.21597642     A.U. after   17 cycles
 SCF Done:  E(RM062X) =  -2805.22965071     A.U. after   14 cycles
 SCF Done:  E(RM062X) =  -2805.23082012     A.U. after   13 cycles
 SCF Done:  E(RM062X) =  -2805.23087659     A.U. after   12 cycles
 SCF Done:  E(RM062X) =  -2805.23087993     A.U. after   12 cycles
 SCF Done:  E(RM062X) =  -2805.23088101     A.U. after    9 cycles
 SCF Done:  E(RM062X) =  -2805.23088102     A.U. after    7 cycles
 Optimization completed.
    -- Stationary point found.
 Normal termination of Gaussian 16 at Fri May 30 05:17:59 2025.

 ----------------------------------------------------------------------
 #N Geom=AllCheck Guess=TCheck SCRF=Check GenChk RM062X/6-311+G(d,p) Fr
 eq
 ----------------------------------------------------------------------

 Structure from the checkpoint file:  "2-br-ph-anion-opt-freq-thf.chk"
 --------------------------
 2-br-ph-anion-opt-freq-thf
 --------------------------
 Charge = -1 Multiplicity = 1

                          Input orientation:
 ---------------------------------------------------------------------
 Center     Atomic      Atomic             Coordinates (Angstroms)
 Number     Number       Type             X           Y           Z
 ---------------------------------------------------------------------
      1          6           0        6.297198    7.012943    5.211411
      2          6           0        5.462999    6.056893    4.578579
      3          1           0        5.790365    5.017222    4.539658
      4          6           0        4.230395    6.347984    3.988857
      5          1           0        3.644871    5.561560    3.520379
      6          6           0        3.750220    7.657013    4.002280
      7          6           0        4.516591    8.649865    4.607347
      8          1           0        4.169930    9.676545    4.633460
      9          6           0        5.734072    8.268409    5.170203
     10          1           0        2.796078    7.908239    3.551204
     11         35           0        6.715604    9.806212    5.995773
 ---------------------------------------------------------------------

 SCF Done:  E(RM062X) =  -2805.23088102     A.U. after    1 cycles

 Alpha  occ. eigenvalues -- -485.27700 -63.26907 -57.09619 -57.09415 -57.09407
 Alpha  occ. eigenvalues --  -10.54865 -10.51523 -10.51127 -10.50681 -10.50104
 Alpha  occ. eigenvalues --  -10.45750  -8.95601  -6.78262  -6.77444  -6.77424
 Alpha  occ. eigenvalues --   -2.81418  -2.81143  -2.81119  -2.80398  -2.80397
 Alpha  occ. eigenvalues --   -0.92419  -0.83790  -0.79498  -0.76218  -0.64165
 Alpha  occ. eigenvalues --   -0.61916  -0.53970  -0.47840  -0.46532  -0.43424
 Alpha  occ. eigenvalues --   -0.41079  -0.40392  -0.34465  -0.32641  -0.29916
 Alpha  occ. eigenvalues --   -0.26703  -0.25195  -0.20700
 Alpha virt. eigenvalues --    0.03047   0.04196   0.04610   0.05315   0.05665
 Alpha virt. eigenvalues --    0.05757   0.07252   0.07326   0.08075   0.08863
 Alpha virt. eigenvalues --    0.09919   0.10036   0.11692   0.11719   0.13046

 Mulliken charges:
               1
     1  C   -1.023333
     2  C   -0.038393
     3  H    0.155170
     4  C   -0.365596
     5  H    0.168399
     6  C   -0.160822
     7  C   -0.555701
     8  H    0.180670
     9  C    0.764991
    10  H    0.175083
    11  Br  -0.300467
 Sum of Mulliken charges =  -1.00000

 Dipole moment (field-independent basis, Debye):
    X=            -31.9271    Y=            -37.0261    Z=            -26.5890  Tot=             55.6529
 Quadrupole moment (field-independent basis, Debye-Ang):
   XX=           -271.4987   YY=           -350.1224   ZZ=           -208.6750
   XY=           -247.0588   XZ=           -175.5519   YZ=           -206.0253

  Exact polarizability:     138.899       5.398     160.521      31.418      18.952     101.621
 Approx polarizability:     126.534       3.778     149.578      25.210      16.076      96.557

                      1                      2                      3
                      A                      A                      A
 Frequencies --    156.5855               259.9949               266.4706
 Red. masses --      4.9450                11.7163                 6.3815
 Frc consts  --      0.0714                 0.4666                 0.2670
 IR Inten    --      9.5673                15.8883                18.2376

                      4                      5                      6
                      A                      A                      A
 Frequencies --    403.3485               474.5817               603.6601
 Red. masses --      3.2570                 3.9147                 7.2269
 Frc consts  --      0.3122                 0.5195                 1.5516
 IR Inten    --     19.8209                 0.3032                 2.8782

                      7                      8                      9
                      A                      A                      A
 Frequencies --    649.1635               702.9534               762.6438
 Red. masses --      7.6965                 3.0607                 1.4096
 Frc consts  --      1.9110                 0.8911                 0.4830
 IR Inten    --    137.5656                 7.0404                93.4872

                     10                     11                     12
                      A                      A                      A
 Frequencies --    887.7654               960.7815               968.6662
 Red. masses --      1.2761                 1.3929                 7.2079
 Frc consts  --      0.5926                 0.7575                 3.9848
 IR Inten    --      0.1532                 0.0966               147.6823

                     13                     14                     15
                      A                      A                      A
 Frequencies --    984.1865              1005.2224              1062.3458
 Red. masses --      6.3071                 1.3044                 2.0082
 Frc consts  --      3.5994                 0.7766                 1.3353
 IR Inten    --    100.5399                 0.0361                31.3950

                     16                     17                     18
                      A                      A                      A
 Frequencies --   1111.7270              1157.5224              1254.9570
 Red. masses --      1.6692                 1.1147                 2.2617
 Frc consts  --      1.2155                 0.8800                 2.0987
 IR Inten    --     16.4555                 0.4664                80.0777

                     19                     20                     21
                      A                      A                      A
 Frequencies --   1294.4342              1417.2773              1441.7097
 Red. masses --      2.4629                 2.0100                 1.9902
 Frc consts  --      2.4314                 2.3788                 2.4373
 IR Inten    --     84.9628               101.7052                 9.2968

                     22                     23                     24
                      A                      A                      A
 Frequencies --   1588.2720              1607.3440              3113.4035
 Red. masses --      5.0347                 5.6623                 1.0867
 Frc consts  --      7.4830                 8.6191                 6.2064
 IR Inten    --     48.3661                28.7442                68.9520

                     25                     26                     27
                      A                      A                      A
 Frequencies --   3175.2719              3197.2118              3212.8584
 Red. masses --      1.0896                 1.0909                 1.0971
 Frc consts  --      6.4726                 6.5702                 6.6721
 IR Inten    --     35.5508                18.3674                23.8324

 - Thermochemistry -
 -------------------
 Temperature   298.150 Kelvin.  Pressure   1.00000 Atm.
 Atom     1 has atomic number  6 and mass  12.00000

 Molecular mass:   154.94964 amu.
 Principal axes and moments of inertia in atomic units:
                           1         2         3
     Eigenvalues --   307.372491850.941102158.31320
           X            0.52323   0.71872  -0.45789
           Y            0.73890  -0.65031  -0.17641
           Z            0.42456   0.24604   0.87133
 This molecule is an asymmetric top.
 Rotational symmetry number  1.
 Rotational temperatures (Kelvin)      0.28179     0.04679     0.04013
 Rotational constants (GHZ):           5.87151     0.97504     0.83618
 Zero-point vibrational energy     201692.5 (Joules/Mol)
                                   48.20567 (Kcal/Mol)
 Warning -- explicit consideration of   6 degrees of freedom as
           vibrations may cause significant error
 Vibrational temperatures:    225.29   374.07   383.39   580.33   682.82
          (Kelvin)            868.53   934.00  1011.39  1097.27  1277.30
                             1382.35  1393.69  1416.02  1446.29  1528.48
                             1599.53  1665.42  1805.60  1862.40  2039.15
                             2074.30  2285.17  2312.61  4479.49  4568.51
                             4600.07  4622.59

 Zero-point correction=                           0.076821 (Hartree/Particle)
 Thermal correction to Energy=                    0.082599
 Thermal correction to Enthalpy=                  0.083543
 Thermal correction to Gibbs Free Energy=         0.045832
 Sum of electronic and zero-point Energies=          -2805.154060
 Sum of electronic and thermal Energies=             -2805.148282
 Sum of electronic and thermal Enthalpies=           -2805.147338
 Sum of electronic and thermal Free Energies=        -2805.185049

                     E (Thermal)             CV                S
                      KCal/Mol        Cal/Mol-Kelvin    Cal/Mol-Kelvin
 Total                   51.832             21.155             79.369
 Electronic               0.000              0.000              0.000
 Translational            0.889              2.981             41.023
 Rotational               0.889              2.981             28.598
 Vibrational             50.054             15.193              9.748
 Vibration     1          0.620              1.895              2.591
 Vibration     2          0.668              1.746              1.662
 Vibration     3          0.672              1.735              1.619
 Vibration     4          0.769              1.463              0.950
 Vibration     5          0.831              1.306              0.725
 Vibration     6          0.962              1.024              0.443

 Optimization completed.
    -- Stationary point found.
 Normal termination of Gaussian 16 at Fri May 30 05:18:39 2025.
