 Gaussian 16, Revision C.01,
 Gaussian 16:  AS64L-G16RevC.01  3-Jul-2019

 ----------------------------------------------------------------------
 # opt=(calcfc,tight) freq 6-311+g(d,p) scrf=(smd,solvent=thf) nosymm s
 cf=(qc,fermi,xqc) geom=connectivity int=ultrafine m062x
 ----------------------------------------------------------------------

 --------------------------
 4-beta-nap-ph-opt-freq-thf
 --------------------------
 Symbolic Z-matrix:
 Charge =  0 Multiplicity = 2

 SCF Done:  E(UM062X) =  -616.157448949     A.U. after   19 cycles
 SCF Done:  E(UM062X) =  -616.162157484     A.U. after   16 cycles
 SCF Done:  E(UM062X) =  -616.162180405     A.U. after   14 cycles
 SCF Done:  E(UM062X) =  -616.162180515     A.U. after   11 cycles
 SCF Done:  E(UM062X) =  -616.162180516     A.U. after    7 cycles
 Optimization completed.
    -- Stationary point found.
 Normal termination of Gaussian 16 at Sun May 11 04:10:39 2025.

 ----------------------------------------------------------------------
 #N Geom=AllCheck Guess=TCheck SCRF=Check GenChk UM062X/6-311+G(d,p) Fr
 eq
 ----------------------------------------------------------------------

 Structure from the checkpoint file:  "4-beta-nap-ph-opt-freq-thf.chk"
 --------------------------
 4-beta-nap-ph-opt-freq-thf
 --------------------------
 Charge =  0 Multiplicity = 2

                          Input orientation:
 ---------------------------------------------------------------------
 Center     Atomic      Atomic             Coordinates (Angstroms)
 Number     Number       Type             X           Y           Z
 ---------------------------------------------------------------------
      1          6           0        6.156734    7.022943    5.245785
      2          6           0        5.376737    6.093922    4.603352
      3          1           0        5.672928    5.055716    4.503218
      4          6           0        4.166391    6.547864    4.069728
      5          1           0        3.515893    5.854912    3.546125
      6          6           0        3.788332    7.888847    4.191805
      7          6           0        4.631933    8.783425    4.861572
      8          1           0        4.334361    9.821412    4.971037
      9          6           0        5.843759    8.351599    5.405290
     10          1           0        6.493639    9.042112    5.931021
     11          6           0        2.474737    8.341329    3.655238
     12          6           0        2.378817    9.414624    2.709671
     13          6           0        1.326518    7.714935    4.084353
     14          6           0        3.518497   10.062141    2.156261
     15          6           0        1.088148    9.831985    2.272960
     16          6           0        0.049932    8.124611    3.636703
     17          1           0        1.403455    6.904529    4.801405
     18          6           0        3.379974   11.082752    1.251274
     19          1           0        4.509574    9.734220    2.444311
     20          6           0        0.978686   10.898837    1.341311
     21          6           0       -0.068479    9.168135    2.759554
     22          1           0       -0.832302    7.613599    4.004580
     23          6           0        2.095854   11.515422    0.844631
     24          1           0        4.261286   11.559053    0.837113
     25          1           0       -0.012070   11.209627    1.026044
     26          1           0       -1.042863    9.500776    2.417304
     27          1           0        2.001951   12.326856    0.132111
 ---------------------------------------------------------------------

 SCF Done:  E(UM062X) =  -616.162180516     A.U. after    1 cycles

 Alpha  occ. eigenvalues --  -10.57045 -10.56060 -10.55967 -10.55908 -10.55652
 Alpha  occ. eigenvalues --  -10.55378 -10.55357 -10.55282 -10.55257 -10.54561
 Alpha  occ. eigenvalues --  -10.54554 -10.54527 -10.54506 -10.54436 -10.54428
 Alpha  occ. eigenvalues --  -10.54371  -0.99369  -0.97383  -0.93026  -0.89254
 Alpha  occ. eigenvalues --   -0.85633  -0.84588  -0.84027  -0.80759  -0.71666
 Alpha  occ. eigenvalues --   -0.70839  -0.69584  -0.69106  -0.65802  -0.60343
 Alpha  occ. eigenvalues --   -0.58811  -0.57153  -0.55825  -0.53468  -0.52608
 Alpha  occ. eigenvalues --   -0.51406  -0.50241  -0.50015  -0.48485  -0.47418
 Alpha  occ. eigenvalues --   -0.46806  -0.46370  -0.45050  -0.43102  -0.41934
 Alpha  occ. eigenvalues --   -0.39991  -0.39575  -0.38855  -0.35317  -0.31846
 Alpha  occ. eigenvalues --   -0.31695  -0.30736  -0.30098  -0.26683
 Alpha virt. eigenvalues --   -0.02331   0.00268   0.00870   0.01335   0.01521
 Alpha virt. eigenvalues --    0.02511   0.02667   0.03554   0.04051   0.04264
 Alpha virt. eigenvalues --    0.04777   0.05076   0.05565   0.05876   0.06382

  Beta  occ. eigenvalues --  -10.56083 -10.56055 -10.55970 -10.55937 -10.55651
  Beta  occ. eigenvalues --  -10.55332 -10.55307 -10.55251 -10.55230 -10.54564
  Beta  occ. eigenvalues --  -10.54555 -10.54529 -10.54506 -10.54436 -10.54428
  Beta  occ. eigenvalues --  -10.54371  -0.99270  -0.96773  -0.92929  -0.88883
  Beta  occ. eigenvalues --   -0.85234  -0.84043  -0.84017  -0.80224  -0.71389
  Beta  occ. eigenvalues --   -0.70617  -0.69083  -0.68651  -0.65344  -0.60063
  Beta  occ. eigenvalues --   -0.58791  -0.57044  -0.55083  -0.52744  -0.51821
  Beta  occ. eigenvalues --   -0.51334  -0.49933  -0.49579  -0.48467  -0.47012
  Beta  occ. eigenvalues --   -0.46661  -0.45973  -0.44362  -0.42931  -0.41451
  Beta  occ. eigenvalues --   -0.39944  -0.39544  -0.38634  -0.35183  -0.31818
  Beta  occ. eigenvalues --   -0.30739  -0.30173  -0.26522
  Beta virt. eigenvalues --   -0.05210  -0.02204   0.00248   0.01098   0.01481
  Beta virt. eigenvalues --    0.01838   0.02556   0.02711   0.03590   0.04095
  Beta virt. eigenvalues --    0.04317   0.04981   0.05152   0.05634   0.05903

 Mulliken charges and spin densities:
               1          2
     1  C    0.205864   0.795121
     2  C   -0.482099   0.082171
     3  H    0.204438   0.017284
     4  C   -0.428152   0.000908
     5  H    0.194725   0.004436
     6  C    0.904473   0.000230
     7  C   -0.524863  -0.001462
     8  H    0.198954   0.004297
     9  C   -0.526542   0.084689
    10  H    0.203261   0.016891
    11  C    0.549898   0.008748
    12  C    0.237146  -0.010262
    13  C   -0.220177  -0.006925
    14  C   -0.511684   0.003839
    15  C    0.470912  -0.001413
    16  C   -0.651168   0.001084
    17  H    0.189415   0.000162
    18  C   -0.463045   0.003239
    19  H    0.213344  -0.000139
    20  C   -0.116331  -0.001607
    21  C   -0.086505  -0.002378
    22  H    0.192664  -0.000079
    23  C   -0.516701   0.001004
    24  H    0.188884   0.000027
    25  H    0.191765   0.000018
    26  H    0.190744   0.000151
    27  H    0.190780  -0.000032
 Sum of Mulliken charges =   0.00000   1.00000

 Dipole moment (field-independent basis, Debye):
    X=             -0.9813    Y=              0.3927    Z=             -0.4719  Tot=              1.1575
 Quadrupole moment (field-independent basis, Debye-Ang):
   XX=            -91.6478   YY=            -77.5599   ZZ=            -97.6697
   XY=             -4.5641   XZ=             -3.8350   YZ=             -7.2467

  Exact polarizability:     292.941      -0.470     263.342      24.930     -66.503     206.954
 Approx polarizability:     270.048       6.643     250.071      15.976     -50.860     196.383

                      1                      2                      3
                      A                      A                      A
 Frequencies --     50.4555                78.6056                89.3679
 Red. masses --      4.0833                 4.3247                 5.4895
 Frc consts  --      0.0061                 0.0157                 0.0258
 IR Inten    --      0.0129                 0.1482                 0.1003

                      4                      5                      6
                      A                      A                      A
 Frequencies --    167.8924               187.7492               257.4245
 Red. masses --      4.1332                 3.9283                 5.9466
 Frc consts  --      0.0686                 0.0816                 0.2322
 IR Inten    --      4.3302                 0.2047                 1.2228

                      7                      8                      9
                      A                      A                      A
 Frequencies --    299.7012               317.2210               405.8065
 Red. masses --      5.3614                 4.3560                 2.8484
 Frc consts  --      0.2837                 0.2583                 0.2764
 IR Inten    --      1.8107                 1.2299                 0.5802

                     10                     11                     12
                      A                      A                      A
 Frequencies --    413.4658               445.7063               477.8327
 Red. masses --      4.0455                 3.2515                 3.3553
 Frc consts  --      0.4075                 0.3806                 0.4514
 IR Inten    --      9.8027                12.1021                 0.7731

                     13                     14                     15
                      A                      A                      A
 Frequencies --    497.4885               528.7014               556.1778
 Red. masses --      4.3989                 7.0472                 4.3528
 Frc consts  --      0.6415                 1.1606                 0.7933
 IR Inten    --      9.9988                 1.1359                15.7081

                     16                     17                     18
                      A                      A                      A
 Frequencies --    582.3334               609.9811               625.4868
 Red. masses --      3.4132                 6.2190                 7.1883
 Frc consts  --      0.6820                 1.3633                 1.6570
 IR Inten    --     15.4887                 0.6117                17.8656

                     19                     20                     21
                      A                      A                      A
 Frequencies --    664.3024               705.2577               726.0735
 Red. masses --      3.7069                 5.5512                 3.0372
 Frc consts  --      0.9638                 1.6268                 0.9434
 IR Inten    --      2.5081                 5.2447                11.7415

                     22                     23                     24
                      A                      A                      A
 Frequencies --    758.2897               795.6874               804.7335
 Red. masses --      1.4061                 2.4056                 3.6668
 Frc consts  --      0.4764                 0.8973                 1.3991
 IR Inten    --      1.2153                27.3870                29.5691

                     25                     26                     27
                      A                      A                      A
 Frequencies --    816.4795               832.0281               836.3369
 Red. masses --      1.5396                 1.7860                 1.2600
 Frc consts  --      0.6047                 0.7285                 0.5192
 IR Inten    --    182.7549                37.9619                 0.9869

                     28                     29                     30
                      A                      A                      A
 Frequencies --    847.0012               897.5995               950.5640
 Red. masses --      3.9387                 1.5459                 1.3968
 Frc consts  --      1.6648                 0.7338                 0.7436
 IR Inten    --      3.3627                 2.3932                 0.5512

                     31                     32                     33
                      A                      A                      A
 Frequencies --    966.6372               975.4896               994.6434
 Red. masses --      4.7235                 1.4947                 1.3935
 Frc consts  --      2.6004                 0.8380                 0.8122
 IR Inten    --      5.6241                 2.1105                 0.1808

                     34                     35                     36
                      A                      A                      A
 Frequencies --   1000.7720              1003.7480              1015.4200
 Red. masses --      5.2179                 1.3534                 1.3387
 Frc consts  --      3.0790                 0.8034                 0.8133
 IR Inten    --      0.0408                 0.6191                 3.3049

                     37                     38                     39
                      A                      A                      A
 Frequencies --   1024.9198              1050.3936              1060.9442
 Red. masses --      1.2949                 2.6501                 2.1149
 Frc consts  --      0.8014                 1.7227                 1.4026
 IR Inten    --      0.2031                18.0751                21.0347

                     40                     41                     42
                      A                      A                      A
 Frequencies --   1083.8675              1106.4094              1137.3861
 Red. masses --      2.0647                 1.3541                 1.9504
 Frc consts  --      1.4291                 0.9766                 1.4866
 IR Inten    --      1.5816                10.2365                 3.5122

                     43                     44                     45
                      A                      A                      A
 Frequencies --   1161.4456              1176.9551              1181.5149
 Red. masses --      1.2428                 1.1274                 1.1458
 Frc consts  --      0.9877                 0.9201                 0.9424
 IR Inten    --      2.1132                 0.2090                 0.5563

                     46                     47                     48
                      A                      A                      A
 Frequencies --   1206.2514              1228.2759              1275.0284
 Red. masses --      1.5357                 2.1525                 1.5909
 Frc consts  --      1.3166                 1.9133                 1.5238
 IR Inten    --      1.7409                 1.9218                 2.3979

                     49                     50                     51
                      A                      A                      A
 Frequencies --   1288.6445              1313.8622              1316.7358
 Red. masses --      2.4668                 1.9005                 2.2531
 Frc consts  --      2.4136                 1.9329                 2.3016
 IR Inten    --      0.3559                 1.0109                 0.0441

                     52                     53                     54
                      A                      A                      A
 Frequencies --   1362.2930              1400.3913              1415.9772
 Red. masses --      2.8432                 3.1633                 6.4488
 Frc consts  --      3.1088                 3.6550                 7.6180
 IR Inten    --      8.7879                 4.0249                 1.1958

                     55                     56                     57
                      A                      A                      A
 Frequencies --   1428.0155              1472.1735              1491.5084
 Red. masses --      2.1963                 2.2849                 2.3992
 Frc consts  --      2.6388                 2.9177                 3.1446
 IR Inten    --     31.1639                 4.2842                11.7453

                     58                     59                     60
                      A                      A                      A
 Frequencies --   1507.3574              1562.0847              1622.0877
 Red. masses --      2.9755                 3.9652                 5.8269
 Frc consts  --      3.9833                 5.7007                 9.0330
 IR Inten    --      2.4461                14.7464                 1.4400

                     61                     62                     63
                      A                      A                      A
 Frequencies --   1642.5446              1653.1239              1665.5839
 Red. masses --      7.5568                 7.6234                 5.6934
 Frc consts  --     12.0123                12.2746                 9.3059
 IR Inten    --      1.3000                 2.6641                 6.0440

                     64                     65                     66
                      A                      A                      A
 Frequencies --   1696.1761              3195.4337              3196.3423
 Red. masses --      6.5566                 1.0889                 1.0884
 Frc consts  --     11.1140                 6.5511                 6.5513
 IR Inten    --      0.2574                 1.9664                 0.8032

                     67                     68                     69
                      A                      A                      A
 Frequencies --   3197.2801              3198.1626              3203.4688
 Red. masses --      1.0880                 1.0880                 1.0920
 Frc consts  --      6.5529                 6.5564                 6.6025
 IR Inten    --      0.0858                 1.5362                 9.3858

                     70                     71                     72
                      A                      A                      A
 Frequencies --   3206.7811              3210.7028              3212.8444
 Red. masses --      1.0903                 1.0944                 1.0961
 Frc consts  --      6.6057                 6.6467                 6.6661
 IR Inten    --      7.1862                 1.6421                 0.0248

                     73                     74                     75
                      A                      A                      A
 Frequencies --   3219.9992              3220.8978              3230.3815
 Red. masses --      1.0956                 1.0976                 1.0957
 Frc consts  --      6.6930                 6.7086                 6.7364
 IR Inten    --     12.0989                11.7540                 6.3126

 - Thermochemistry -
 -------------------
 Temperature   298.150 Kelvin.  Pressure   1.00000 Atm.
 Atom     1 has atomic number  6 and mass  12.00000

 Molecular mass:   203.08608 amu.
 Principal axes and moments of inertia in atomic units:
                           1         2         3
     Eigenvalues --  1681.359534647.241105898.48350
           X            0.66889   0.73031  -0.13864
           Y           -0.53112   0.60002   0.59823
           Z            0.52008  -0.32652   0.78924
 This molecule is an asymmetric top.
 Rotational symmetry number  1.
 Warning -- assumption of classical behavior for rotation
           may cause significant error
 Rotational temperatures (Kelvin)      0.05151     0.01864     0.01468
 Rotational constants (GHZ):           1.07338     0.38835     0.30597
 Zero-point vibrational energy     568266.3 (Joules/Mol)
                                  135.81891 (Kcal/Mol)
 Warning -- explicit consideration of  17 degrees of freedom as
           vibrations may cause significant error
 Vibrational temperatures:     72.59   113.10   128.58   241.56   270.13
          (Kelvin)            370.38   431.20   456.41   583.87   594.89
                              641.27   687.49   715.78   760.68   800.22
                              837.85   877.63   899.94   955.78  1014.71
                             1044.66  1091.01  1144.82  1157.83  1174.73
                             1197.10  1203.30  1218.65  1291.45  1367.65
                             1390.78  1403.51  1431.07  1439.89  1444.17
                             1460.96  1474.63  1511.28  1526.46  1559.44
                             1591.88  1636.44  1671.06  1693.38  1699.94
                             1735.53  1767.22  1834.48  1854.07  1890.35
                             1894.49  1960.04  2014.85  2037.28  2054.60
                             2118.13  2145.95  2168.75  2247.49  2333.82
                             2363.26  2378.48  2396.40  2440.42  4597.52
                             4598.82  4600.17  4601.44  4609.08  4613.84
                             4619.49  4622.57  4632.86  4634.15  4647.80

 Zero-point correction=                           0.216441 (Hartree/Particle)
 Thermal correction to Energy=                    0.227876
 Thermal correction to Enthalpy=                  0.228820
 Thermal correction to Gibbs Free Energy=         0.177761
 Sum of electronic and zero-point Energies=           -615.945739
 Sum of electronic and thermal Energies=              -615.934304
 Sum of electronic and thermal Enthalpies=            -615.933360
 Sum of electronic and thermal Free Energies=         -615.984420

                     E (Thermal)             CV                S
                      KCal/Mol        Cal/Mol-Kelvin    Cal/Mol-Kelvin
 Total                  142.994             47.417            107.463
 Electronic               0.000              0.000              1.377
 Translational            0.889              2.981             41.830
 Rotational               0.889              2.981             32.200
 Vibrational            141.217             41.455             32.057
 Vibration     1          0.595              1.977              4.799
 Vibration     2          0.600              1.964              3.925
 Vibration     3          0.602              1.957              3.674
 Vibration     4          0.625              1.882              2.459
 Vibration     5          0.632              1.857              2.250
 Vibration     6          0.667              1.750              1.679
 Vibration     7          0.692              1.674              1.419
 Vibration     8          0.704              1.641              1.324
 Vibration     9          0.771              1.458              0.942
 Vibration    10          0.777              1.441              0.914
 Vibration    11          0.805              1.370              0.809
 Vibration    12          0.834              1.299              0.716
 Vibration    13          0.853              1.256              0.664
 Vibration    14          0.884              1.186              0.590
 Vibration    15          0.912              1.126              0.532
 Vibration    16          0.939              1.070              0.481
 Vibration    17          0.969              1.011              0.433

 Optimization completed.
    -- Stationary point found.
 Normal termination of Gaussian 16 at Sun May 11 04:22:10 2025.
