 Gaussian 16, Revision C.01,
 Gaussian 16:  AS64L-G16RevC.01  3-Jul-2019

 ----------------------------------------------------------------------
 # opt=(calcfc,tight) freq 6-311+g(d,p) scrf=(smd,solvent=thf) nosymm s
 cf=(qc,fermi,xqc) geom=connectivity int=ultrafine m062x
 ----------------------------------------------------------------------

 -------------------
 4-cl-ph-optfreq-thf
 -------------------
 Symbolic Z-matrix:
 Charge =  0 Multiplicity = 2

 SCF Done:  E(UM062X) =  -691.116987641     A.U. after   19 cycles
 SCF Done:  E(UM062X) =  -691.121633087     A.U. after   15 cycles
 SCF Done:  E(UM062X) =  -691.121652449     A.U. after   11 cycles
 SCF Done:  E(UM062X) =  -691.121652532     A.U. after    9 cycles
 Optimization completed.
    -- Stationary point found.
 Normal termination of Gaussian 16 at Mon May  5 08:16:30 2025.

 ----------------------------------------------------------------------
 #N Geom=AllCheck Guess=TCheck SCRF=Check GenChk UM062X/6-311+G(d,p) Fr
 eq
 ----------------------------------------------------------------------

 Structure from the checkpoint file:  "4-cl-ph-opt-freq-thf.chk"
 -------------------
 4-cl-ph-optfreq-thf
 -------------------
 Charge =  0 Multiplicity = 2

                          Input orientation:
 ---------------------------------------------------------------------
 Center     Atomic      Atomic             Coordinates (Angstroms)
 Number     Number       Type             X           Y           Z
 ---------------------------------------------------------------------
      1          6           0        6.165027    7.018037    5.142089
      2          6           0        5.110277    6.154789    5.309389
      3          1           0        5.205765    5.215274    5.841468
      4          6           0        3.883080    6.535043    4.759494
      5          1           0        3.012599    5.897594    4.856870
      6          6           0        3.795563    7.746629    4.083503
      7          6           0        4.885539    8.596278    3.933615
      8          1           0        4.781219    9.533738    3.400613
      9          6           0        6.115300    8.220836    4.481315
     10          1           0        6.981178    8.864778    4.378696
     11         17           0        2.255536    8.218657    3.395207
 ---------------------------------------------------------------------

 SCF Done:  E(UM062X) =  -691.121652532     A.U. after    1 cycles

 Alpha  occ. eigenvalues -- -102.68076 -10.61318 -10.57734 -10.56522 -10.56519
 Alpha  occ. eigenvalues --  -10.56213 -10.56210  -9.82343  -7.54852  -7.54180
 Alpha  occ. eigenvalues --   -7.54179  -1.00735  -0.94867  -0.86772  -0.83119
 Alpha  occ. eigenvalues --   -0.71498  -0.68089  -0.59225  -0.55014  -0.53690
 Alpha  occ. eigenvalues --   -0.51112  -0.48010  -0.47469  -0.43645  -0.41246
 Alpha  occ. eigenvalues --   -0.38475  -0.32712  -0.31530  -0.31360
 Alpha virt. eigenvalues --    0.00118   0.00601   0.01936   0.02931   0.03338
 Alpha virt. eigenvalues --    0.05283   0.05957   0.06191   0.06723   0.07456
 Alpha virt. eigenvalues --    0.08684   0.09311   0.09599   0.10138   0.12884

  Beta  occ. eigenvalues -- -102.68077 -10.61356 -10.56754 -10.56439 -10.56435
  Beta  occ. eigenvalues --  -10.56218 -10.56211  -9.82343  -7.54842  -7.54194
  Beta  occ. eigenvalues --   -7.54179  -1.00435  -0.94110  -0.86381  -0.81710
  Beta  occ. eigenvalues --   -0.71009  -0.67008  -0.57963  -0.54212  -0.52908
  Beta  occ. eigenvalues --   -0.50642  -0.47724  -0.46131  -0.43073  -0.40641
  Beta  occ. eigenvalues --   -0.38442  -0.32754  -0.30240
  Beta virt. eigenvalues --   -0.05714   0.00057   0.01701   0.01869   0.02997
  Beta virt. eigenvalues --    0.03415   0.05880   0.05986   0.06125   0.06903
  Beta virt. eigenvalues --    0.07874   0.08798   0.09365   0.09555   0.10809

 Mulliken charges and spin densities:
               1          2
     1  C    0.295878   0.826417
     2  C   -0.587806   0.064823
     3  H    0.213981   0.016959
     4  C   -0.441388   0.015187
     5  H    0.220708   0.003804
     6  C    0.681693  -0.022451
     7  C   -0.438984   0.015114
     8  H    0.220779   0.003790
     9  C   -0.586625   0.064406
    10  H    0.213983   0.016952
    11  Cl   0.207781  -0.005001
 Sum of Mulliken charges =   0.00000   1.00000

 Dipole moment (field-independent basis, Debye):
    X=              1.1217    Y=             -0.3429    Z=              0.5002  Tot=              1.2752
 Quadrupole moment (field-independent basis, Debye-Ang):
   XX=            -38.9676   YY=            -47.6207   ZZ=            -45.5227
   XY=             11.1689   XZ=              5.5489   YZ=             -1.3484

  Exact polarizability:     122.354       1.744     101.725      17.207     -23.061      75.129
 Approx polarizability:     115.793       2.755      99.178      14.896     -21.564      73.422

                      1                      2                      3
                      A                      A                      A
 Frequencies --    198.9729               302.7502               404.9780
 Red. masses --      7.3838                 5.9767                 2.8500
 Frc consts  --      0.1722                 0.3228                 0.2754
 IR Inten    --      0.2667                 0.7006                 0.0197

                      4                      5                      6
                      A                      A                      A
 Frequencies --    422.0639               469.7795               605.3369
 Red. masses --     13.3116                 3.1923                 6.9925
 Frc consts  --      1.3971                 0.4151                 1.5096
 IR Inten    --      5.3362                34.8246                 0.1692

                      7                      8                      9
                      A                      A                      A
 Frequencies --    694.7638               702.0543               808.2972
 Red. masses --      3.7490                 7.0994                 1.4253
 Frc consts  --      1.0662                 2.0617                 0.5486
 IR Inten    --      0.8050                46.3449               116.8051

                     10                     11                     12
                      A                      A                      A
 Frequencies --    825.3676               960.0159               985.1632
 Red. masses --      1.2453                 1.3430                 1.3824
 Frc consts  --      0.4998                 0.7292                 0.7905
 IR Inten    --      0.0075                 1.5454                 0.1262

                     13                     14                     15
                      A                      A                      A
 Frequencies --    987.4896              1057.8532              1102.7246
 Red. masses --      7.4556                 2.2644                 1.8574
 Frc consts  --      4.2835                 1.4930                 1.3308
 IR Inten    --     21.9236                23.5040                33.9904

                     16                     17                     18
                      A                      A                      A
 Frequencies --   1104.3520              1171.2288              1286.0905
 Red. masses --      2.0145                 1.1187                 1.9058
 Frc consts  --      1.4476                 0.9042                 1.8573
 IR Inten    --     36.9360                 1.6411                 0.6796

                     19                     20                     21
                      A                      A                      A
 Frequencies --   1309.7393              1397.7008              1484.2540
 Red. masses --      2.3752                 3.2539                 2.2895
 Frc consts  --      2.4006                 3.7452                 2.9717
 IR Inten    --      2.8045                 6.3065                49.9478

                     22                     23                     24
                      A                      A                      A
 Frequencies --   1597.1820              1657.6454              3208.4558
 Red. masses --      5.9822                 8.1414                 1.0895
 Frc consts  --      8.9912                13.1805                 6.6079
 IR Inten    --     30.0716                 0.0177                 0.0687

                     25                     26                     27
                      A                      A                      A
 Frequencies --   3211.1659              3225.7815              3228.1055
 Red. masses --      1.0890                 1.0960                 1.0958
 Frc consts  --      6.6159                 6.7194                 6.7280
 IR Inten    --      0.0497                 0.4065                 0.1352

 - Thermochemistry -
 -------------------
 Temperature   298.150 Kelvin.  Pressure   1.00000 Atm.
 Atom     1 has atomic number  6 and mass  12.00000

 Molecular mass:   111.00015 amu.
 Principal axes and moments of inertia in atomic units:
                           1         2         3
     Eigenvalues --   321.701741090.996661412.69835
           X            0.87914   0.41125  -0.24081
           Y           -0.26988   0.84609   0.45967
           Z            0.39278  -0.33913   0.85482
 This molecule is an asymmetric top.
 Rotational symmetry number  1.
 Rotational temperatures (Kelvin)      0.26924     0.07939     0.06131
 Rotational constants (GHZ):           5.60998     1.65421     1.27751
 Zero-point vibrational energy     205813.4 (Joules/Mol)
                                   49.19058 (Kcal/Mol)
 Warning -- explicit consideration of   6 degrees of freedom as
           vibrations may cause significant error
 Vibrational temperatures:    286.28   435.59   582.67   607.26   675.91
          (Kelvin)            870.94   999.61  1010.10  1162.96  1187.52
                             1381.25  1417.43  1420.78  1522.01  1586.57
                             1588.92  1685.14  1850.40  1884.42  2010.98
                             2135.51  2297.99  2384.98  4616.25  4620.15
                             4641.18  4644.52

 Zero-point correction=                           0.078390 (Hartree/Particle)
 Thermal correction to Energy=                    0.083833
 Thermal correction to Enthalpy=                  0.084777
 Thermal correction to Gibbs Free Energy=         0.048044
 Sum of electronic and zero-point Energies=           -691.043262
 Sum of electronic and thermal Energies=              -691.037820
 Sum of electronic and thermal Enthalpies=            -691.036876
 Sum of electronic and thermal Free Energies=         -691.073608

                     E (Thermal)             CV                S
                      KCal/Mol        Cal/Mol-Kelvin    Cal/Mol-Kelvin
 Total                   52.606             20.487             77.311
 Electronic               0.000              0.000              1.377
 Translational            0.889              2.981             40.029
 Rotational               0.889              2.981             27.697
 Vibrational             50.828             14.525              8.207
 Vibration     1          0.637              1.841              2.143
 Vibration     2          0.694              1.668              1.402
 Vibration     3          0.770              1.459              0.945
 Vibration     4          0.784              1.422              0.885
 Vibration     5          0.827              1.317              0.738
 Vibration     6          0.964              1.020              0.441

 Optimization completed.
    -- Stationary point found.
 Normal termination of Gaussian 16 at Mon May  5 08:17:27 2025.
