 Gaussian 16, Revision C.01,
 Gaussian 16:  AS64L-G16RevC.01  3-Jul-2019

 ----------------------------------------------------------------------
 # opt=(calcfc,tight) freq 6-311+g(d,p) scrf=(smd,solvent=thf) nosymm s
 cf=(qc,fermi,xqc) geom=connectivity int=ultrafine m062x
 ----------------------------------------------------------------------

 ------------------------
 2-cl-phboh2-opt-freq-thf
 ------------------------
 Symbolic Z-matrix:
 Charge =  0 Multiplicity = 1

 SCF Done:  E(RM062X) =  -867.836171492     A.U. after   15 cycles
 SCF Done:  E(RM062X) =  -867.836277587     A.U. after   12 cycles
 SCF Done:  E(RM062X) =  -867.836281413     A.U. after   12 cycles
 SCF Done:  E(RM062X) =  -867.836282339     A.U. after   10 cycles
 SCF Done:  E(RM062X) =  -867.836282352     A.U. after    8 cycles
 SCF Done:  E(RM062X) =  -867.836282353     A.U. after    8 cycles
 Optimization completed.
    -- Stationary point found.
 Normal termination of Gaussian 16 at Sat Apr 26 20:09:06 2025.

 ----------------------------------------------------------------------
 #N Geom=AllCheck Guess=TCheck SCRF=Check GenChk RM062X/6-311+G(d,p) Fr
 eq
 ----------------------------------------------------------------------

 Structure from the checkpoint file:  "2-cl-phboh2-opt-freq-thf.chk"
 ------------------------
 2-cl-phboh2-opt-freq-thf
 ------------------------
 Charge =  0 Multiplicity = 1

                          Input orientation:
 ---------------------------------------------------------------------
 Center     Atomic      Atomic             Coordinates (Angstroms)
 Number     Number       Type             X           Y           Z
 ---------------------------------------------------------------------
      1          8           0        8.821062    6.800951    5.037970
      2          1           0        9.597847    6.460005    5.497936
      3          6           0        6.287587    7.042856    5.142127
      4          5           0        7.674883    6.577634    5.731317
      5          8           0        7.748564    5.888331    6.909261
      6          1           0        6.904164    5.806495    7.364458
      7          6           0        5.237213    6.114411    5.092356
      8          1           0        5.401821    5.109608    5.470231
      9          6           0        3.996405    6.436581    4.554345
     10          1           0        3.208995    5.693041    4.520773
     11          6           0        3.772743    7.717488    4.060976
     12          6           0        4.785327    8.669403    4.108525
     13          1           0        4.620313    9.674247    3.739628
     14          6           0        6.018965    8.317549    4.641092
     15          1           0        2.809594    7.984351    3.641865
     16         17           0        7.251980    9.565827    4.711260
 ---------------------------------------------------------------------

 SCF Done:  E(RM062X) =  -867.836282353     A.U. after    1 cycles

 Alpha  occ. eigenvalues -- -102.67469 -19.63968 -19.63366 -10.61266 -10.55663
 Alpha  occ. eigenvalues --  -10.55574 -10.55447 -10.54937 -10.54554  -9.81757
 Alpha  occ. eigenvalues --   -7.54254  -7.53609  -7.53587  -7.09215  -1.17021
 Alpha  occ. eigenvalues --   -1.13357  -0.99845  -0.93902  -0.85768  -0.82984
 Alpha  occ. eigenvalues --   -0.70742  -0.68642  -0.65417  -0.62863  -0.59291
 Alpha  occ. eigenvalues --   -0.54618  -0.53355  -0.51195  -0.49570  -0.48175
 Alpha  occ. eigenvalues --   -0.46701  -0.45982  -0.45601  -0.41884  -0.40875
 Alpha  occ. eigenvalues --   -0.40259  -0.39516  -0.37408  -0.32147  -0.30430
 Alpha virt. eigenvalues --   -0.00435   0.00102   0.00601   0.01993   0.02334
 Alpha virt. eigenvalues --    0.02847   0.03856   0.04530   0.05475   0.06338
 Alpha virt. eigenvalues --    0.07322   0.07694   0.08333   0.09023   0.09764

 Mulliken charges:
               1
     1  O   -0.320787
     2  H    0.300898
     3  C   -1.145839
     4  B    0.370292
     5  O   -0.348487
     6  H    0.293981
     7  C   -0.194276
     8  H    0.194018
     9  C   -0.145215
    10  H    0.194379
    11  C   -0.277756
    12  C   -0.407677
    13  H    0.212602
    14  C    0.829154
    15  H    0.200199
    16  Cl   0.244514
 Sum of Mulliken charges =   0.00000

 Dipole moment (field-independent basis, Debye):
    X=             -2.7926    Y=             -2.1005    Z=              1.1440  Tot=              3.6768
 Quadrupole moment (field-independent basis, Debye-Ang):
   XX=            -91.4714   YY=            -93.7146   ZZ=            -53.5658
   XY=            -34.7066   XZ=             -3.0198   YZ=             -5.1491

  Exact polarizability:     149.147      13.374     137.414      17.924     -18.313      91.442
 Approx polarizability:     139.592      12.300     132.580      14.680     -16.202      91.407

                      1                      2                      3
                      A                      A                      A
 Frequencies --     46.6393               106.2056               138.4802
 Red. masses --      7.2714                 4.6711                 8.5212
 Frc consts  --      0.0093                 0.0310                 0.0963
 IR Inten    --      1.3593                 1.2296                 0.1978

                      4                      5                      6
                      A                      A                      A
 Frequencies --    183.8583               268.9072               319.3138
 Red. masses --      5.4697                 6.0177                 6.8021
 Frc consts  --      0.1089                 0.2564                 0.4086
 IR Inten    --      2.2843                 3.0153                 4.6933

                      7                      8                      9
                      A                      A                      A
 Frequencies --    376.1850               427.5429               468.8739
 Red. masses --      4.0171                 7.3327                 3.5868
 Frc consts  --      0.3349                 0.7897                 0.4646
 IR Inten    --      4.5027                24.1794                19.8039

                     10                     11                     12
                      A                      A                      A
 Frequencies --    505.6782               529.9028               546.9653
 Red. masses --      1.1635                 2.9260                 4.2760
 Frc consts  --      0.1753                 0.4841                 0.7537
 IR Inten    --    252.0814                23.8198                34.0319

                     13                     14                     15
                      A                      A                      A
 Frequencies --    564.3639               664.0434               679.7512
 Red. masses --      1.3017                 5.7412                 6.1509
 Frc consts  --      0.2443                 1.4916                 1.6745
 IR Inten    --      4.4155                90.8070                 3.4624

                     16                     17                     18
                      A                      A                      A
 Frequencies --    753.3067               759.4537               778.5704
 Red. masses --      5.0367                 6.0258                 1.2424
 Frc consts  --      1.6840                 2.0477                 0.4437
 IR Inten    --     10.3981                38.2777               101.4784

                     19                     20                     21
                      A                      A                      A
 Frequencies --    904.3933               992.5466              1005.0537
 Red. masses --      1.3347                 1.3696                 1.7024
 Frc consts  --      0.6432                 0.7950                 1.0132
 IR Inten    --      0.3491                 6.4507               112.5909

                     22                     23                     24
                      A                      A                      A
 Frequencies --   1023.7442              1032.9171              1051.2644
 Red. masses --      1.3239                 1.3913                 4.3911
 Frc consts  --      0.8175                 0.8746                 2.8592
 IR Inten    --      2.1938               144.3610               153.3680

                     25                     26                     27
                      A                      A                      A
 Frequencies --   1070.4496              1149.5299              1150.5966
 Red. masses --      2.5727                 1.8168                 1.8904
 Frc consts  --      1.7369                 1.4145                 1.4745
 IR Inten    --     10.1965                29.7822                29.4138

                     28                     29                     30
                      A                      A                      A
 Frequencies --   1174.0137              1285.3908              1300.2414
 Red. masses --      1.1275                 2.0714                 2.8994
 Frc consts  --      0.9156                 2.0164                 2.8881
 IR Inten    --      0.7580                 6.7927                30.7947

                     31                     32                     33
                      A                      A                      A
 Frequencies --   1367.3804              1413.1542              1464.0365
 Red. masses --      4.2298                 5.1961                 2.3815
 Frc consts  --      4.6596                 6.1137                 3.0075
 IR Inten    --    542.6957               397.1057               161.8985

                     34                     35                     36
                      A                      A                      A
 Frequencies --   1517.1550              1629.4818              1665.4966
 Red. masses --      2.6950                 5.8281                 6.7080
 Frc consts  --      3.6549                 9.1175                10.9631
 IR Inten    --     39.5449                26.8145                64.0643

                     37                     38                     39
                      A                      A                      A
 Frequencies --   3188.7554              3212.0654              3223.4783
 Red. masses --      1.0898                 1.0891                 1.0941
 Frc consts  --      6.5291                 6.6204                 6.6984
 IR Inten    --      4.3881                 2.6665                 3.3493

                     40                     41                     42
                      A                      A                      A
 Frequencies --   3231.3084              3840.8882              3870.1290
 Red. masses --      1.0987                 1.0649                 1.0663
 Frc consts  --      6.7589                 9.2563                 9.4098
 IR Inten    --      2.5309               185.1434               144.0417

 - Thermochemistry -
 -------------------
 Temperature   298.150 Kelvin.  Pressure   1.00000 Atm.
 Atom     1 has atomic number  8 and mass  15.99491

 Molecular mass:   156.01494 amu.
 Principal axes and moments of inertia in atomic units:
                           1         2         3
     Eigenvalues --  1232.958261704.919432748.15880
           X            0.90835   0.31523  -0.27483
           Y           -0.21144   0.91314   0.34852
           Z            0.36082  -0.25847   0.89610
 This molecule is an asymmetric top.
 Rotational symmetry number  1.
 Warning -- assumption of classical behavior for rotation
           may cause significant error
 Rotational temperatures (Kelvin)      0.07025     0.05080     0.03152
 Rotational constants (GHZ):           1.46375     1.05855     0.65671
 Zero-point vibrational energy     304339.0 (Joules/Mol)
                                   72.73877 (Kcal/Mol)
 Warning -- explicit consideration of  13 degrees of freedom as
           vibrations may cause significant error
 Vibrational temperatures:     67.10   152.81   199.24   264.53   386.90
          (Kelvin)            459.42   541.25   615.14   674.60   727.56
                              762.41   786.96   811.99   955.41   978.01
                             1083.84  1092.68  1120.19  1301.22  1428.05
                             1446.05  1472.94  1486.14  1512.54  1540.14
                             1653.92  1655.45  1689.14  1849.39  1870.76
                             1967.36  2033.21  2106.42  2182.85  2344.46
                             2396.28  4587.91  4621.45  4637.87  4649.13
                             5526.18  5568.25

 Zero-point correction=                           0.115917 (Hartree/Particle)
 Thermal correction to Energy=                    0.124964
 Thermal correction to Enthalpy=                  0.125908
 Thermal correction to Gibbs Free Energy=         0.080876
 Sum of electronic and zero-point Energies=           -867.720366
 Sum of electronic and thermal Energies=              -867.711318
 Sum of electronic and thermal Enthalpies=            -867.710374
 Sum of electronic and thermal Free Energies=         -867.755407

                     E (Thermal)             CV                S
                      KCal/Mol        Cal/Mol-Kelvin    Cal/Mol-Kelvin
 Total                   78.416             33.906             94.779
 Electronic               0.000              0.000              0.000
 Translational            0.889              2.981             41.044
 Rotational               0.889              2.981             30.136
 Vibrational             76.639             27.944             23.599
 Vibration     1          0.595              1.979              4.955
 Vibration     2          0.605              1.944              3.337
 Vibration     3          0.614              1.915              2.825
 Vibration     4          0.631              1.862              2.289
 Vibration     5          0.673              1.730              1.603
 Vibration     6          0.705              1.637              1.314
 Vibration     7          0.747              1.521              1.054
 Vibration     8          0.789              1.410              0.867
 Vibration     9          0.826              1.319              0.741
 Vibration    10          0.861              1.237              0.644
 Vibration    11          0.885              1.184              0.587
 Vibration    12          0.902              1.146              0.550
 Vibration    13          0.920              1.108              0.515

 Optimization completed.
    -- Stationary point found.
 Normal termination of Gaussian 16 at Sat Apr 26 20:10:35 2025.
