 Gaussian 16, Revision C.01,
 Gaussian 16:  AS64L-G16RevC.01  3-Jul-2019

 ----------------------------------------------------------------------
 # opt=(calcfc,tight) freq 6-311+g(d,p) nosymm scf=(qc,fermi,xqc) geom=
 connectivity int=ultrafine m062x
 ----------------------------------------------------------------------

 -------------------
 2-cl-phboh2-optfreq
 -------------------
 Symbolic Z-matrix:
 Charge =  0 Multiplicity = 1

 SCF Done:  E(RM062X) =  -867.806941848     A.U. after   16 cycles
 SCF Done:  E(RM062X) =  -867.810409484     A.U. after   15 cycles
 SCF Done:  E(RM062X) =  -867.813447697     A.U. after   14 cycles
 SCF Done:  E(RM062X) =  -867.801090761     A.U. after   16 cycles
 SCF Done:  E(RM062X) =  -867.815128210     A.U. after   15 cycles
 SCF Done:  E(RM062X) =  -867.815957859     A.U. after   16 cycles
 SCF Done:  E(RM062X) =  -867.819520105     A.U. after   14 cycles
 SCF Done:  E(RM062X) =  -867.818683083     A.U. after   15 cycles
 SCF Done:  E(RM062X) =  -867.821019493     A.U. after   13 cycles
 SCF Done:  E(RM062X) =  -867.821353213     A.U. after   14 cycles
 SCF Done:  E(RM062X) =  -867.821415419     A.U. after   13 cycles
 SCF Done:  E(RM062X) =  -867.821445314     A.U. after   12 cycles
 SCF Done:  E(RM062X) =  -867.821458553     A.U. after   12 cycles
 SCF Done:  E(RM062X) =  -867.821459230     A.U. after   10 cycles
 SCF Done:  E(RM062X) =  -867.821459282     A.U. after    8 cycles
 SCF Done:  E(RM062X) =  -867.821459296     A.U. after    9 cycles
 SCF Done:  E(RM062X) =  -867.821459297     A.U. after    8 cycles
 Optimization completed.
    -- Stationary point found.
 Normal termination of Gaussian 16 at Tue Apr 22 20:51:16 2025.

 ----------------------------------------------------------------------
 #N Geom=AllCheck Guess=TCheck SCRF=Check GenChk RM062X/6-311+G(d,p) Fr
 eq
 ----------------------------------------------------------------------

 Structure from the checkpoint file:  "2-cl-phboh2-opt-freq.chk"
 -------------------
 2-cl-phboh2-optfreq
 -------------------
 Charge =  0 Multiplicity = 1

                          Input orientation:
 ---------------------------------------------------------------------
 Center     Atomic      Atomic             Coordinates (Angstroms)
 Number     Number       Type             X           Y           Z
 ---------------------------------------------------------------------
      1          8           0        8.828710    6.837749    5.065408
      2          1           0        9.597493    6.494407    5.530983
      3          6           0        6.289311    7.045908    5.139228
      4          5           0        7.675352    6.579308    5.726665
      5          8           0        7.736081    5.845217    6.880929
      6          1           0        6.892963    5.764191    7.331618
      7          6           0        5.235801    6.121586    5.101735
      8          1           0        5.403418    5.117484    5.480482
      9          6           0        3.992917    6.440713    4.568949
     10          1           0        3.203977    5.699181    4.543683
     11          6           0        3.772109    7.718332    4.067685
     12          6           0        4.788413    8.665238    4.101935
     13          1           0        4.628978    9.667749    3.726074
     14          6           0        6.026545    8.319038    4.629129
     15          1           0        2.807857    7.984789    3.651764
     16         17           0        7.257538    9.557888    4.677854
 ---------------------------------------------------------------------

 SCF Done:  E(RM062X) =  -867.821459297     A.U. after    1 cycles

 Alpha  occ. eigenvalues -- -102.67083 -19.64499 -19.63552 -10.61453 -10.56414
 Alpha  occ. eigenvalues --  -10.56242 -10.56068 -10.55735 -10.54898  -9.81372
 Alpha  occ. eigenvalues --   -7.53878  -7.53216  -7.53192  -7.09493  -1.17526
 Alpha  occ. eigenvalues --   -1.13821  -1.00085  -0.94152  -0.86350  -0.83353
 Alpha  occ. eigenvalues --   -0.71362  -0.69248  -0.65972  -0.63387  -0.59962
 Alpha  occ. eigenvalues --   -0.55180  -0.54044  -0.51791  -0.50137  -0.48597
 Alpha  occ. eigenvalues --   -0.46862  -0.46404  -0.45959  -0.42575  -0.41128
 Alpha  occ. eigenvalues --   -0.40291  -0.39954  -0.37096  -0.32621  -0.30502
 Alpha virt. eigenvalues --   -0.00932  -0.00525   0.00207   0.01353   0.02002
 Alpha virt. eigenvalues --    0.02501   0.03743   0.03835   0.05290   0.06170
 Alpha virt. eigenvalues --    0.07051   0.07386   0.08199   0.08692   0.09460

 Mulliken charges:
               1
     1  O   -0.281684
     2  H    0.277822
     3  C   -1.114967
     4  B    0.336059
     5  O   -0.316341
     6  H    0.264876
     7  C   -0.197934
     8  H    0.159306
     9  C   -0.105993
    10  H    0.161280
    11  C   -0.255607
    12  C   -0.400462
    13  H    0.183950
    14  C    0.830314
    15  H    0.166815
    16  Cl   0.292565
 Sum of Mulliken charges =   0.00000

 Dipole moment (field-independent basis, Debye):
    X=             -2.0512    Y=             -1.4935    Z=              0.9298  Tot=              2.7023
 Quadrupole moment (field-independent basis, Debye-Ang):
   XX=            -83.3415   YY=            -85.2784   ZZ=            -55.8615
   XY=            -25.1021   XZ=             -1.2303   YZ=             -3.1699

  Exact polarizability:     116.786       9.451     103.892      13.816     -14.373      71.171
 Approx polarizability:     140.691      12.940     132.807      14.589     -17.223      90.775

                      1                      2                      3
                      A                      A                      A
 Frequencies --     39.8869               101.6201               145.6187
 Red. masses --      7.4054                 4.6414                 8.0876
 Frc consts  --      0.0069                 0.0282                 0.1010
 IR Inten    --      0.7666                 0.7741                 0.1020

                      4                      5                      6
                      A                      A                      A
 Frequencies --    184.7306               268.5701               317.1580
 Red. masses --      5.4771                 6.1945                 6.9162
 Frc consts  --      0.1101                 0.2632                 0.4099
 IR Inten    --      1.5745                 2.2350                 3.3809

                      7                      8                      9
                      A                      A                      A
 Frequencies --    379.3202               429.8065               469.2812
 Red. masses --      3.9901                 7.0418                 3.6682
 Frc consts  --      0.3383                 0.7664                 0.4760
 IR Inten    --      3.9635                14.9893                10.8236

                     10                     11                     12
                      A                      A                      A
 Frequencies --    520.4321               532.7285               548.1548
 Red. masses --      1.5356                 1.9890                 4.1950
 Frc consts  --      0.2451                 0.3326                 0.7427
 IR Inten    --    107.6199                67.0240                24.0119

                     13                     14                     15
                      A                      A                      A
 Frequencies --    577.6157               675.3114               683.3045
 Red. masses --      1.2692                 4.9162                 6.0779
 Frc consts  --      0.2495                 1.3210                 1.6720
 IR Inten    --      4.5769                73.9867                 0.5771

                     16                     17                     18
                      A                      A                      A
 Frequencies --    755.6189               763.8506               779.3204
 Red. masses --      5.1258                 5.8148                 1.2517
 Frc consts  --      1.7243                 1.9989                 0.4479
 IR Inten    --     10.4027                23.8228                56.8400

                     19                     20                     21
                      A                      A                      A
 Frequencies --    903.1323               987.2921              1005.0280
 Red. masses --      1.3338                 1.3674                 1.6916
 Frc consts  --      0.6410                 0.7853                 1.0067
 IR Inten    --      0.4261                 3.7852                83.3378

                     22                     23                     24
                      A                      A                      A
 Frequencies --   1019.1729              1032.7526              1059.6651
 Red. masses --      1.3170                 1.3561                 4.5078
 Frc consts  --      0.8060                 0.8522                 2.9823
 IR Inten    --      1.3847               122.3015                96.6935

                     25                     26                     27
                      A                      A                      A
 Frequencies --   1071.8516              1153.2448              1155.9713
 Red. masses --      2.5632                 2.3093                 1.6090
 Frc consts  --      1.7350                 1.8096                 1.2667
 IR Inten    --      4.0512                36.3952                 8.1445

                     28                     29                     30
                      A                      A                      A
 Frequencies --   1181.6602              1284.8466              1300.5258
 Red. masses --      1.1437                 1.6504                 4.0387
 Frc consts  --      0.9409                 1.6053                 4.0247
 IR Inten    --      0.7834                 4.4615                22.7196

                     31                     32                     33
                      A                      A                      A
 Frequencies --   1377.0745              1433.6784              1473.1980
 Red. masses --      4.2543                 4.2637                 2.6959
 Frc consts  --      4.7533                 5.1635                 3.4472
 IR Inten    --    391.5699               219.3903               166.1218

                     34                     35                     36
                      A                      A                      A
 Frequencies --   1519.5860              1633.6352              1667.9384
 Red. masses --      2.7687                 5.9258                 6.5596
 Frc consts  --      3.7669                 9.3176                10.7520
 IR Inten    --     30.5063                19.8875                42.5298

                     37                     38                     39
                      A                      A                      A
 Frequencies --   3180.4917              3210.8005              3225.3775
 Red. masses --      1.0893                 1.0882                 1.0939
 Frc consts  --      6.4922                 6.6099                 6.7047
 IR Inten    --      6.0561                 2.5081                 5.3251

                     40                     41                     42
                      A                      A                      A
 Frequencies --   3233.7726              3898.8159              3934.4292
 Red. masses --      1.0977                 1.0651                 1.0662
 Frc consts  --      6.7631                 9.5391                 9.7245
 IR Inten    --      3.2629               104.1952                69.4520

 - Thermochemistry -
 -------------------
 Temperature   298.150 Kelvin.  Pressure   1.00000 Atm.
 Atom     1 has atomic number  8 and mass  15.99491

 Molecular mass:   156.01494 amu.
 Principal axes and moments of inertia in atomic units:
                           1         2         3
     Eigenvalues --  1232.336431693.013332754.39790
           X            0.90875   0.31904  -0.26905
           Y           -0.21321   0.90911   0.35785
           Z            0.35876  -0.26784   0.89418
 This molecule is an asymmetric top.
 Rotational symmetry number  1.
 Warning -- assumption of classical behavior for rotation
           may cause significant error
 Rotational temperatures (Kelvin)      0.07028     0.05116     0.03145
 Rotational constants (GHZ):           1.46449     1.06599     0.65522
 Zero-point vibrational energy     305743.2 (Joules/Mol)
                                   73.07438 (Kcal/Mol)
 Warning -- explicit consideration of  13 degrees of freedom as
           vibrations may cause significant error
 Vibrational temperatures:     57.39   146.21   209.51   265.79   386.41
          (Kelvin)            456.32   545.76   618.40   675.19   748.79
                              766.48   788.67   831.06   971.62   983.12
                             1087.17  1099.01  1121.27  1299.41  1420.49
                             1446.01  1466.36  1485.90  1524.62  1542.16
                             1659.26  1663.18  1700.15  1848.61  1871.17
                             1981.30  2062.74  2119.60  2186.35  2350.44
                             2399.79  4576.02  4619.63  4640.60  4652.68
                             5609.53  5660.77

 Zero-point correction=                           0.116451 (Hartree/Particle)
 Thermal correction to Energy=                    0.125473
 Thermal correction to Enthalpy=                  0.126417
 Thermal correction to Gibbs Free Energy=         0.081301
 Sum of electronic and zero-point Energies=           -867.705008
 Sum of electronic and thermal Energies=              -867.695986
 Sum of electronic and thermal Enthalpies=            -867.695042
 Sum of electronic and thermal Free Energies=         -867.740159

                     E (Thermal)             CV                S
                      KCal/Mol        Cal/Mol-Kelvin    Cal/Mol-Kelvin
 Total                   78.736             33.759             94.956
 Electronic               0.000              0.000              0.000
 Translational            0.889              2.981             41.044
 Rotational               0.889              2.981             30.131
 Vibrational             76.958             27.797             23.781
 Vibration     1          0.594              1.981              5.265
 Vibration     2          0.604              1.948              3.423
 Vibration     3          0.617              1.907              2.729
 Vibration     4          0.631              1.861              2.280
 Vibration     5          0.673              1.731              1.605
 Vibration     6          0.704              1.641              1.325
 Vibration     7          0.749              1.514              1.042
 Vibration     8          0.791              1.405              0.859
 Vibration     9          0.826              1.318              0.740
 Vibration    10          0.875              1.205              0.609
 Vibration    11          0.888              1.178              0.581
 Vibration    12          0.903              1.144              0.548
 Vibration    13          0.934              1.080              0.490

 Optimization completed.
    -- Stationary point found.
 Normal termination of Gaussian 16 at Tue Apr 22 20:52:36 2025.
