 Gaussian 16, Revision C.01,
 Gaussian 16:  AS64L-G16RevC.01  3-Jul-2019

 ----------------------------------------------------------------------
 # opt=(calcfc,tight) freq 6-311+g(d,p) scrf=(smd,solvent=thf) nosymm s
 cf=(qc,fermi,xqc) geom=connectivity int=ultrafine m062x
 ----------------------------------------------------------------------

 --------------------
 2-cl-ph-opt-freq-thf
 --------------------
 Symbolic Z-matrix:
 Charge =  0 Multiplicity = 2

 SCF Done:  E(UM062X) =  -691.115132024     A.U. after   21 cycles
 SCF Done:  E(UM062X) =  -691.120201503     A.U. after   16 cycles
 SCF Done:  E(UM062X) =  -691.120230059     A.U. after   12 cycles
 SCF Done:  E(UM062X) =  -691.120230252     A.U. after   10 cycles
 SCF Done:  E(UM062X) =  -691.120230255     A.U. after    8 cycles
 Optimization completed.
    -- Stationary point found.
 Normal termination of Gaussian 16 at Fri May  9 07:51:56 2025.

 ----------------------------------------------------------------------
 #N Geom=AllCheck Guess=TCheck SCRF=Check GenChk UM062X/6-311+G(d,p) Fr
 eq
 ----------------------------------------------------------------------

 Structure from the checkpoint file:  "2-cl-ph-opt-freq-thf.chk"
 --------------------
 2-cl-ph-opt-freq-thf
 --------------------
 Charge =  0 Multiplicity = 2

                          Input orientation:
 ---------------------------------------------------------------------
 Center     Atomic      Atomic             Coordinates (Angstroms)
 Number     Number       Type             X           Y           Z
 ---------------------------------------------------------------------
      1          6           0        6.200181    7.076851    5.117472
      2          6           0        5.244878    6.092679    5.097358
      3          1           0        5.439015    5.098091    5.482573
      4          6           0        4.000961    6.431845    4.554412
      5          1           0        3.212492    5.689170    4.515866
      6          6           0        3.777058    7.717168    4.065855
      7          6           0        4.776928    8.686137    4.106044
      8          1           0        4.604434    9.686520    3.725961
      9          6           0        6.015855    8.349364    4.646867
     10          1           0        2.811648    7.973687    3.646398
     11         17           0        7.307492    9.523850    4.724374
 ---------------------------------------------------------------------

 SCF Done:  E(UM062X) =  -691.120230255     A.U. after    1 cycles

 Alpha  occ. eigenvalues -- -102.68450 -10.61761 -10.58529 -10.56412 -10.56232
 Alpha  occ. eigenvalues --  -10.55844 -10.55525  -9.82689  -7.55236  -7.54524
 Alpha  occ. eigenvalues --   -7.54519  -1.00989  -0.94885  -0.86169  -0.83913
 Alpha  occ. eigenvalues --   -0.70791  -0.68512  -0.59779  -0.54888  -0.53314
 Alpha  occ. eigenvalues --   -0.50804  -0.48330  -0.46807  -0.43270  -0.40966
 Alpha  occ. eigenvalues --   -0.38837  -0.33120  -0.32574  -0.31146
 Alpha virt. eigenvalues --    0.00192   0.00705   0.01975   0.02857   0.03682
 Alpha virt. eigenvalues --    0.04823   0.06113   0.06344   0.06700   0.07546
 Alpha virt. eigenvalues --    0.08734   0.09531   0.09607   0.10126   0.12592

  Beta  occ. eigenvalues -- -102.68414 -10.61787 -10.57544 -10.56358 -10.56246
  Beta  occ. eigenvalues --  -10.55766 -10.55550  -9.82674  -7.55151  -7.54519
  Beta  occ. eigenvalues --   -7.54496  -1.00296  -0.94534  -0.85262  -0.82940
  Beta  occ. eigenvalues --   -0.70014  -0.67406  -0.58824  -0.54130  -0.52581
  Beta  occ. eigenvalues --   -0.50399  -0.47717  -0.45333  -0.42849  -0.40918
  Beta  occ. eigenvalues --   -0.38562  -0.32189  -0.30669
  Beta virt. eigenvalues --   -0.07091   0.00155   0.01782   0.01896   0.02978
  Beta virt. eigenvalues --    0.03975   0.04557   0.06027   0.06381   0.06745
  Beta virt. eigenvalues --    0.07190   0.08740   0.09280   0.09584   0.10744

 Mulliken charges and spin densities:
               1          2
     1  C    0.042858   0.703312
     2  C   -0.655028   0.089807
     3  H    0.213569   0.019001
     4  C   -0.090446   0.016888
     5  H    0.202508   0.004545
     6  C   -0.392242  -0.032370
     7  C   -0.458216   0.041414
     8  H    0.219678   0.007255
     9  C    0.458355   0.123387
    10  H    0.203918   0.002625
    11  Cl   0.255047   0.024135
 Sum of Mulliken charges =   0.00000   1.00000

 Dipole moment (field-independent basis, Debye):
    X=             -2.7690    Y=             -1.3757    Z=             -0.5300  Tot=              3.1370
 Quadrupole moment (field-independent basis, Debye-Ang):
   XX=            -76.2845   YY=            -64.5524   ZZ=            -54.7142
   XY=            -29.4524   XZ=            -13.7342   YZ=            -13.2668

  Exact polarizability:     115.380      18.837     118.664      14.074     -12.787      66.978
 Approx polarizability:     110.095      14.811     113.263      13.619     -12.570      66.412

                      1                      2                      3
                      A                      A                      A
 Frequencies --    182.4313               285.5112               414.6572
 Red. masses --      5.8379                 6.7487                12.1714
 Frc consts  --      0.1145                 0.3241                 1.2330
 IR Inten    --      1.7460                 0.0445                 4.8678

                      4                      5                      6
                      A                      A                      A
 Frequencies --    417.0220               491.2196               616.8948
 Red. masses --      3.2383                 3.9866                 7.1739
 Frc consts  --      0.3318                 0.5668                 1.6085
 IR Inten    --      7.7963                 2.5324                 0.5687

                      7                      8                      9
                      A                      A                      A
 Frequencies --    694.4408               703.4112               757.9113
 Red. masses --      4.0684                 7.0005                 1.2076
 Frc consts  --      1.1560                 2.0408                 0.4087
 IR Inten    --      0.1052                53.3368               134.9096

                     10                     11                     12
                      A                      A                      A
 Frequencies --    869.8048               969.5964               979.8849
 Red. masses --      1.3291                 1.3735                 7.1506
 Frc consts  --      0.5924                 0.7608                 4.0452
 IR Inten    --      1.8408                 2.4547                19.3950

                     13                     14                     15
                      A                      A                      A
 Frequencies --   1012.9373              1046.2809              1115.5544
 Red. masses --      1.3200                 2.4125                 2.4287
 Frc consts  --      0.7980                 1.5560                 1.7808
 IR Inten    --      0.0084                16.6406                43.6603

                     16                     17                     18
                      A                      A                      A
 Frequencies --   1131.0078              1165.5380              1247.6958
 Red. masses --      1.5877                 1.1500                 1.5970
 Frc consts  --      1.1966                 0.9204                 1.4648
 IR Inten    --     11.7493                 4.2154                 6.3175

                     19                     20                     21
                      A                      A                      A
 Frequencies --   1314.6110              1455.6979              1467.5378
 Red. masses --      4.1268                 2.3704                 2.3386
 Frc consts  --      4.2020                 2.9594                 2.9674
 IR Inten    --      0.5301                 9.0918                63.9182

                     22                     23                     24
                      A                      A                      A
 Frequencies --   1600.4294              1658.9264              3204.7386
 Red. masses --      5.8047                 7.6129                 1.0875
 Frc consts  --      8.7599                12.3440                 6.5803
 IR Inten    --      7.5740                10.5701                 1.2214

                     25                     26                     27
                      A                      A                      A
 Frequencies --   3212.7369              3219.1105              3230.1002
 Red. masses --      1.0902                 1.0946                 1.0984
 Frc consts  --      6.6301                 6.6831                 6.7520
 IR Inten    --      0.9219                 0.5542                 1.7767

 - Thermochemistry -
 -------------------
 Temperature   298.150 Kelvin.  Pressure   1.00000 Atm.
 Atom     1 has atomic number  6 and mass  12.00000

 Molecular mass:   111.00015 amu.
 Principal axes and moments of inertia in atomic units:
                           1         2         3
     Eigenvalues --   296.476391156.220411452.69676
           X            0.72766  -0.60873  -0.31615
           Y            0.68499   0.66905   0.28837
           Z            0.03598  -0.42640   0.90382
 This molecule is an asymmetric top.
 Rotational symmetry number  1.
 Rotational temperatures (Kelvin)      0.29214     0.07491     0.05962
 Rotational constants (GHZ):           6.08730     1.56090     1.24234
 Zero-point vibrational energy     206150.6 (Joules/Mol)
                                   49.27118 (Kcal/Mol)
 Warning -- explicit consideration of   6 degrees of freedom as
           vibrations may cause significant error
 Vibrational temperatures:    262.48   410.79   596.60   600.00   706.76
          (Kelvin)            887.57   999.15  1012.05  1090.47  1251.46
                             1395.03  1409.84  1457.39  1505.36  1605.03
                             1627.27  1676.95  1795.16  1891.43  2094.42
                             2111.46  2302.66  2386.83  4610.90  4622.41
                             4631.58  4647.39

 Zero-point correction=                           0.078519 (Hartree/Particle)
 Thermal correction to Energy=                    0.083980
 Thermal correction to Enthalpy=                  0.084924
 Thermal correction to Gibbs Free Energy=         0.048112
 Sum of electronic and zero-point Energies=           -691.041712
 Sum of electronic and thermal Energies=              -691.036250
 Sum of electronic and thermal Enthalpies=            -691.035306
 Sum of electronic and thermal Free Energies=         -691.072118

                     E (Thermal)             CV                S
                      KCal/Mol        Cal/Mol-Kelvin    Cal/Mol-Kelvin
 Total                   52.698             20.428             77.478
 Electronic               0.000              0.000              1.377
 Translational            0.889              2.981             40.029
 Rotational               0.889              2.981             27.701
 Vibrational             50.921             14.467              8.370
 Vibration     1          0.630              1.864              2.303
 Vibration     2          0.683              1.701              1.500
 Vibration     3          0.778              1.438              0.910
 Vibration     4          0.780              1.433              0.902
 Vibration     5          0.847              1.270              0.680
 Vibration     6          0.977              0.996              0.421

 Optimization completed.
    -- Stationary point found.
 Normal termination of Gaussian 16 at Fri May  9 07:52:51 2025.
