 Gaussian 16, Revision C.01,
 Gaussian 16:  AS64L-G16RevC.01  3-Jul-2019

 ----------------------------------------------------------------------
 # opt=(calcfc,tight) freq 6-311+g(d,p) scrf=(smd,solvent=thf) nosymm s
 cf=(qc,fermi,xqc) geom=connectivity int=ultrafine m062x
 ----------------------------------------------------------------------

 ---------------------------
 3-isopropyl-ph-opt-freq-thf
 ---------------------------
 Symbolic Z-matrix:
 Charge =  0 Multiplicity = 2

 SCF Done:  E(UM062X) =  -349.432957621     A.U. after   17 cycles
 SCF Done:  E(UM062X) =  -349.437749725     A.U. after   15 cycles
 SCF Done:  E(UM062X) =  -349.437771664     A.U. after   13 cycles
 SCF Done:  E(UM062X) =  -349.437771762     A.U. after    9 cycles
 SCF Done:  E(UM062X) =  -349.437771763     A.U. after    6 cycles
 Optimization completed.
    -- Stationary point found.
 Normal termination of Gaussian 16 at Sun May 11 04:20:04 2025.

 ----------------------------------------------------------------------
 #N Geom=AllCheck Guess=TCheck SCRF=Check GenChk UM062X/6-311+G(d,p) Fr
 eq
 ----------------------------------------------------------------------

 Structure from the checkpoint file:  "3-isopropyl-ph-opt-freq-thf.chk"
 ---------------------------
 3-isopropyl-ph-opt-freq-thf
 ---------------------------
 Charge =  0 Multiplicity = 2

                          Input orientation:
 ---------------------------------------------------------------------
 Center     Atomic      Atomic             Coordinates (Angstroms)
 Number     Number       Type             X           Y           Z
 ---------------------------------------------------------------------
      1          6           0        6.238322    6.956865    5.125309
      2          6           0        5.131595    6.532444    5.816118
      3          1           0        5.172327    5.744782    6.559864
      4          6           0        3.928220    7.178835    5.506126
      5          1           0        3.016802    6.888953    6.018156
      6          6           0        3.896404    8.187450    4.548385
      7          6           0        5.052953    8.588088    3.867717
      8          6           0        6.262610    7.946621    4.172017
      9          1           0        7.177551    8.233450    3.662643
     10          1           0        2.952062    8.672966    4.324262
     11          6           0        5.005021    9.687480    2.824166
     12          1           0        6.022787    9.815872    2.443295
     13          6           0        4.552010   11.015991    3.438187
     14          1           0        5.199081   11.310136    4.268108
     15          1           0        4.575436   11.809251    2.686276
     16          1           0        3.528125   10.940736    3.815625
     17          6           0        4.100293    9.297296    1.650826
     18          1           0        4.119775   10.073883    0.881611
     19          1           0        4.422519    8.356636    1.197706
     20          1           0        3.064852    9.178137    1.982662
 ---------------------------------------------------------------------

 SCF Done:  E(UM062X) =  -349.437771763     A.U. after    1 cycles

 Alpha  occ. eigenvalues --  -10.56635 -10.55491 -10.54937 -10.54674 -10.54616
 Alpha  occ. eigenvalues --  -10.54184 -10.53960 -10.51886 -10.51884  -0.97427
 Alpha  occ. eigenvalues --   -0.90416  -0.84552  -0.82731  -0.77011  -0.70595
 Alpha  occ. eigenvalues --   -0.68808  -0.62950  -0.58847  -0.54455  -0.51753
 Alpha  occ. eigenvalues --   -0.50058  -0.49371  -0.48026  -0.45385  -0.44727
 Alpha  occ. eigenvalues --   -0.44181  -0.43513  -0.39665  -0.39194  -0.38306
 Alpha  occ. eigenvalues --   -0.31651  -0.30240  -0.29936
 Alpha virt. eigenvalues --    0.01573   0.01756   0.01791   0.02861   0.03451
 Alpha virt. eigenvalues --    0.04114   0.04937   0.05664   0.05893   0.06685
 Alpha virt. eigenvalues --    0.07664   0.07777   0.08372   0.08511   0.10553

  Beta  occ. eigenvalues --  -10.55688 -10.55411 -10.54857 -10.54678 -10.54623
  Beta  occ. eigenvalues --  -10.54177 -10.53991 -10.51884 -10.51883  -0.96692
  Beta  occ. eigenvalues --   -0.90019  -0.83731  -0.81949  -0.77001  -0.70142
  Beta  occ. eigenvalues --   -0.68006  -0.61718  -0.58234  -0.53913  -0.51264
  Beta  occ. eigenvalues --   -0.49569  -0.49016  -0.47887  -0.44634  -0.44577
  Beta  occ. eigenvalues --   -0.43126  -0.42985  -0.39559  -0.38575  -0.38177
  Beta  occ. eigenvalues --   -0.30901  -0.29836
  Beta virt. eigenvalues --   -0.04870   0.01572   0.01791   0.02880   0.02900
  Beta virt. eigenvalues --    0.03559   0.04119   0.04982   0.05895   0.06278
  Beta virt. eigenvalues --    0.06686   0.07687   0.07785   0.08546   0.09143

 Mulliken charges and spin densities:
               1          2
     1  C    0.137456   0.746491
     2  C   -0.391767   0.106706
     3  H    0.201499   0.017304
     4  C   -0.224314   0.004882
     5  H    0.193926   0.005601
     6  C   -0.063579  -0.022316
     7  C    0.270620   0.054686
     8  C   -0.568803   0.061621
     9  H    0.194881   0.016984
    10  H    0.189419   0.003967
    11  C    0.097062   0.003468
    12  H    0.177873   0.000071
    13  C   -0.643013  -0.000084
    14  H    0.179879  -0.000065
    15  H    0.176351   0.000481
    16  H    0.180025  -0.000064
    17  C   -0.643921  -0.000083
    18  H    0.176320   0.000480
    19  H    0.179771  -0.000065
    20  H    0.180315  -0.000063
 Sum of Mulliken charges =   0.00000   1.00000

 Dipole moment (field-independent basis, Debye):
    X=             -1.0514    Y=              1.0247    Z=             -0.7160  Tot=              1.6335
 Quadrupole moment (field-independent basis, Debye-Ang):
   XX=            -63.5777   YY=            -38.3934   ZZ=            -60.5332
   XY=             -2.1040   XZ=            -11.0980   YZ=             -6.2233

  Exact polarizability:     141.082      -7.044     134.578      -4.300     -32.870     130.990
 Approx polarizability:     136.390      -5.571     121.080      -6.154     -26.766     118.866

                      1                      2                      3
                      A                      A                      A
 Frequencies --     41.2614               125.9431               217.2836
 Red. masses --      3.1911                 2.9988                 2.0574
 Frc consts  --      0.0032                 0.0280                 0.0572
 IR Inten    --      0.1468                 1.0609                 0.4740

                      4                      5                      6
                      A                      A                      A
 Frequencies --    237.6402               275.6427               309.9351
 Red. masses --      1.1603                 1.1333                 2.7168
 Frc consts  --      0.0386                 0.0507                 0.1538
 IR Inten    --      0.1006                 0.2478                 0.1293

                      7                      8                      9
                      A                      A                      A
 Frequencies --    318.0081               421.9135               467.6236
 Red. masses --      3.1657                 3.3381                 2.9417
 Frc consts  --      0.1886                 0.3501                 0.3790
 IR Inten    --      0.3742                 6.2919                 0.0726

                     10                     11                     12
                      A                      A                      A
 Frequencies --    560.4944               561.6615               622.9503
 Red. masses --      4.1342                 3.1495                 6.9774
 Frc consts  --      0.7652                 0.5854                 1.5953
 IR Inten    --      2.2088                 0.7156                 2.0231

                     13                     14                     15
                      A                      A                      A
 Frequencies --    692.6514               751.6515               790.0949
 Red. masses --      1.8773                 3.9293                 1.5223
 Frc consts  --      0.5306                 1.3080                 0.5599
 IR Inten    --     71.9175                 0.4863                58.2476

                     16                     17                     18
                      A                      A                      A
 Frequencies --    890.0818               915.5310               922.1531
 Red. masses --      1.4079                 2.4569                 1.4093
 Frc consts  --      0.6572                 1.2134                 0.7061
 IR Inten    --     12.2057                 0.8203                 5.0903

                     19                     20                     21
                      A                      A                      A
 Frequencies --    935.0881               972.5073               996.5506
 Red. masses --      1.1468                 1.4615                 5.0845
 Frc consts  --      0.5908                 0.8144                 2.9750
 IR Inten    --      2.0406                 0.1978                 1.3121

                     22                     23                     24
                      A                      A                      A
 Frequencies --   1008.9945              1056.0514              1072.7364
 Red. masses --      1.3325                 2.0524                 1.8008
 Frc consts  --      0.7993                 1.3486                 1.2210
 IR Inten    --      0.3539                31.4229                12.0258

                     25                     26                     27
                      A                      A                      A
 Frequencies --   1104.2845              1138.1615              1167.8176
 Red. masses --      1.4092                 2.3024                 1.9253
 Frc consts  --      1.0125                 1.7573                 1.5470
 IR Inten    --     12.4004                 1.4998                 0.1846

                     28                     29                     30
                      A                      A                      A
 Frequencies --   1170.0104              1227.3891              1293.6892
 Red. masses --      1.1281                 1.7929                 4.2320
 Frc consts  --      0.9099                 1.5913                 4.1731
 IR Inten    --      0.3221                 1.3804                 9.7737

                     31                     32                     33
                      A                      A                      A
 Frequencies --   1300.1868              1342.2731              1365.5057
 Red. masses --      1.4656                 1.3627                 1.7139
 Frc consts  --      1.4597                 1.4465                 1.8829
 IR Inten    --      1.4518                 0.6269                 7.2501

                     34                     35                     36
                      A                      A                      A
 Frequencies --   1394.1243              1410.3213              1449.9701
 Red. masses --      1.2701                 1.2432                 2.3954
 Frc consts  --      1.4545                 1.4569                 2.9672
 IR Inten    --     11.4654                 4.1658                 7.8005

                     37                     38                     39
                      A                      A                      A
 Frequencies --   1478.3301              1482.6897              1489.4706
 Red. masses --      1.0438                 1.0502                 1.4556
 Frc consts  --      1.3440                 1.3602                 1.9026
 IR Inten    --      0.2345                 5.6879                 8.6783

                     40                     41                     42
                      A                      A                      A
 Frequencies --   1492.3786              1505.3632              1592.4137
 Red. masses --      1.0520                 1.5736                 6.0740
 Frc consts  --      1.3805                 2.1010                 9.0748
 IR Inten    --     13.5760                26.2723                14.3673

                     43                     44                     45
                      A                      A                      A
 Frequencies --   1664.9865              3051.7540              3053.9979
 Red. masses --      7.0935                 1.0348                 1.0360
 Frc consts  --     11.5860                 5.6783                 5.6930
 IR Inten    --     28.8294                32.7914                25.6916

                     46                     47                     48
                      A                      A                      A
 Frequencies --   3071.1001              3123.7823              3128.3511
 Red. masses --      1.0845                 1.1031                 1.1019
 Frc consts  --      6.0267                 6.3418                 6.3538
 IR Inten    --     19.6642                 1.7072                85.5013

                     49                     50                     51
                      A                      A                      A
 Frequencies --   3131.4360              3132.2475              3186.5952
 Red. masses --      1.1035                 1.1032                 1.0905
 Frc consts  --      6.3756                 6.3770                 6.5244
 IR Inten    --     23.7573                41.8623                 1.8378

                     52                     53                     54
                      A                      A                      A
 Frequencies --   3191.7671              3203.8268              3213.8574
 Red. masses --      1.0868                 1.0917                 1.0968
 Frc consts  --      6.5233                 6.6021                 6.6749
 IR Inten    --      3.5214                 3.9828                 4.1597

 - Thermochemistry -
 -------------------
 Temperature   298.150 Kelvin.  Pressure   1.00000 Atm.
 Atom     1 has atomic number  6 and mass  12.00000

 Molecular mass:   119.08608 amu.
 Principal axes and moments of inertia in atomic units:
                           1         2         3
     Eigenvalues --   519.784171632.051991764.76674
           X           -0.15484   0.97044   0.18514
           Y            0.73247  -0.01299   0.68067
           Z           -0.66296  -0.24100   0.70881
 This molecule is an asymmetric top.
 Rotational symmetry number  1.
 Warning -- assumption of classical behavior for rotation
           may cause significant error
 Rotational temperatures (Kelvin)      0.16663     0.05307     0.04908
 Rotational constants (GHZ):           3.47210     1.10581     1.02265
 Zero-point vibrational energy     452921.3 (Joules/Mol)
                                  108.25079 (Kcal/Mol)
 Warning -- explicit consideration of  11 degrees of freedom as
           vibrations may cause significant error
 Vibrational temperatures:     59.37   181.20   312.62   341.91   396.59
          (Kelvin)            445.93   457.54   607.04   672.81   806.43
                              808.11   896.29   996.57  1081.46  1136.77
                             1280.63  1317.24  1326.77  1345.38  1399.22
                             1433.81  1451.72  1519.42  1543.43  1588.82
                             1637.56  1680.23  1683.38  1765.94  1861.33
                             1870.68  1931.23  1964.66  2005.83  2029.14
                             2086.18  2126.99  2133.26  2143.02  2147.20
                             2165.88  2291.13  2395.54  4390.79  4394.02
                             4418.63  4494.43  4501.00  4505.44  4506.61
                             4584.80  4592.24  4609.59  4624.02

 Zero-point correction=                           0.172509 (Hartree/Particle)
 Thermal correction to Energy=                    0.181085
 Thermal correction to Enthalpy=                  0.182029
 Thermal correction to Gibbs Free Energy=         0.138338
 Sum of electronic and zero-point Energies=           -349.265263
 Sum of electronic and thermal Energies=              -349.256687
 Sum of electronic and thermal Enthalpies=            -349.255743
 Sum of electronic and thermal Free Energies=         -349.299434

                     E (Thermal)             CV                S
                      KCal/Mol        Cal/Mol-Kelvin    Cal/Mol-Kelvin
 Total                  113.632             32.877             91.956
 Electronic               0.000              0.000              1.377
 Translational            0.889              2.981             40.239
 Rotational               0.889              2.981             28.795
 Vibrational            111.855             26.916             21.546
 Vibration     1          0.594              1.981              5.198
 Vibration     2          0.611              1.927              3.007
 Vibration     3          0.646              1.815              1.982
 Vibration     4          0.656              1.783              1.820
 Vibration     5          0.677              1.718              1.561
 Vibration     6          0.699              1.655              1.363
 Vibration     7          0.704              1.639              1.320
 Vibration     8          0.784              1.423              0.885
 Vibration     9          0.825              1.322              0.744
 Vibration    10          0.916              1.117              0.523
 Vibration    11          0.917              1.114              0.521

 Optimization completed.
    -- Stationary point found.
 Normal termination of Gaussian 16 at Sun May 11 04:23:19 2025.
