 Gaussian 16, Revision C.01,
 Gaussian 16:  AS64L-G16RevC.01  3-Jul-2019

 ----------------------------------------------------------------------
 # opt=(calcfc,tight) freq 6-311+g(d,p) scrf=(smd,solvent=thf) nosymm s
 cf=(qc,fermi,xqc) geom=connectivity int=ultrafine m062x
 ----------------------------------------------------------------------

 -------------------------------
 3-isopropyl-phboh2-opt-freq-thf
 -------------------------------
 Symbolic Z-matrix:
 Charge =  0 Multiplicity = 1

 SCF Done:  E(RM062X) =  -526.154427594     A.U. after   14 cycles
 SCF Done:  E(RM062X) =  -526.154487626     A.U. after   11 cycles
 SCF Done:  E(RM062X) =  -526.154487632     A.U. after    7 cycles
 SCF Done:  E(RM062X) =  -526.154487632     A.U. after    5 cycles
 Optimization completed on the basis of negligible forces.
    -- Stationary point found.
 Normal termination of Gaussian 16 at Mon May  5 07:46:13 2025.

 ----------------------------------------------------------------------
 #N Geom=AllCheck Guess=TCheck SCRF=Check GenChk RM062X/6-311+G(d,p) Fr
 eq
 ----------------------------------------------------------------------

 Structure from the checkpoint file:  "3-isopropyl-phboh2-opt-freq-thf.chk"
 -------------------------------
 3-isopropyl-phboh2-opt-freq-thf
 -------------------------------
 Charge =  0 Multiplicity = 1

                          Input orientation:
 ---------------------------------------------------------------------
 Center     Atomic      Atomic             Coordinates (Angstroms)
 Number     Number       Type             X           Y           Z
 ---------------------------------------------------------------------
      1          8           0        8.815124    6.741410    4.847468
      2          1           0        9.608471    6.248442    5.086433
      3          6           0        6.316572    6.921341    5.142152
      4          5           0        7.695515    6.237128    5.444489
      5          8           0        7.850246    5.158109    6.272080
      6          1           0        7.029552    4.825001    6.647203
      7          6           0        5.137735    6.551215    5.797499
      8          1           0        5.139027    5.771822    6.554692
      9          6           0        3.931746    7.180322    5.499799
     10          1           0        3.024360    6.886412    6.015566
     11          6           0        3.889551    8.187413    4.542466
     12          6           0        5.049765    8.584594    3.868563
     13          6           0        6.246369    7.943030    4.184208
     14          1           0        7.155039    8.242729    3.669942
     15          1           0        2.943398    8.670062    4.317002
     16          6           0        5.003705    9.683895    2.825269
     17          1           0        6.021775    9.809950    2.444119
     18          6           0        4.554359   11.013845    3.439147
     19          1           0        5.204731   11.307773    4.266657
     20          1           0        4.575103   11.807373    2.687356
     21          1           0        3.531776   10.939838    3.820948
     22          6           0        4.097512    9.298742    1.651349
     23          1           0        4.116674   10.076777    0.883514
     24          1           0        4.417725    8.358596    1.195548
     25          1           0        3.061821    9.180146    1.983262
 ---------------------------------------------------------------------

 SCF Done:  E(RM062X) =  -526.154487632     A.U. after    1 cycles

 Alpha  occ. eigenvalues --  -19.63456 -19.62915 -10.54602 -10.54459 -10.54207
 Alpha  occ. eigenvalues --  -10.54128 -10.53905 -10.53897 -10.52796 -10.51751
 Alpha  occ. eigenvalues --  -10.51747  -7.08181  -1.16482  -1.12788  -0.96471
 Alpha  occ. eigenvalues --   -0.89935  -0.84126  -0.82374  -0.76866  -0.70615
 Alpha  occ. eigenvalues --   -0.68650  -0.65977  -0.63840  -0.61119  -0.58088
 Alpha  occ. eigenvalues --   -0.54004  -0.52471  -0.50279  -0.49028  -0.48823
 Alpha  occ. eigenvalues --   -0.48127  -0.47247  -0.45461  -0.44475  -0.44449
 Alpha  occ. eigenvalues --   -0.43106  -0.42623  -0.40295  -0.39610  -0.39395
 Alpha  occ. eigenvalues --   -0.37790  -0.36593  -0.30906  -0.29870
 Alpha virt. eigenvalues --   -0.00328   0.00127   0.01931   0.02086   0.02096
 Alpha virt. eigenvalues --    0.02983   0.03682   0.03711   0.04699   0.04950
 Alpha virt. eigenvalues --    0.06565   0.06862   0.07400   0.07468   0.08337

 Mulliken charges:
               1
     1  O   -0.379332
     2  H    0.323678
     3  C   -0.587526
     4  B    0.500332
     5  O   -0.362668
     6  H    0.278478
     7  C   -0.072020
     8  H    0.169450
     9  C   -0.268753
    10  H    0.186856
    11  C   -0.023516
    12  C    0.420190
    13  C   -0.643048
    14  H    0.189486
    15  H    0.189867
    16  C    0.124368
    17  H    0.176231
    18  C   -0.646268
    19  H    0.178977
    20  H    0.176227
    21  H    0.179975
    22  C   -0.645716
    23  H    0.176396
    24  H    0.178583
    25  H    0.179752
 Sum of Mulliken charges =   0.00000

 Dipole moment (field-independent basis, Debye):
    X=             -1.4611    Y=             -0.3686    Z=              0.3964  Tot=              1.5582
 Quadrupole moment (field-independent basis, Debye-Ang):
   XX=            -84.4935   YY=            -74.5853   ZZ=            -66.6419
   XY=            -14.2443   XZ=             -6.0928   YZ=             -5.4548

  Exact polarizability:     176.617     -15.101     156.403      -1.484     -37.837     147.778
 Approx polarizability:     166.590      -9.427     142.350      -5.326     -29.853     137.149

                      1                      2                      3
                      A                      A                      A
 Frequencies --     23.4452                35.5822               121.3095
 Red. masses --      5.4573                 2.9064                 3.9192
 Frc consts  --      0.0018                 0.0022                 0.0340
 IR Inten    --      4.0694                 0.0017                 1.8063

                      4                      5                      6
                      A                      A                      A
 Frequencies --    127.0505               142.6826               229.0499
 Red. masses --      3.7192                 4.2083                 1.4463
 Frc consts  --      0.0354                 0.0505                 0.0447
 IR Inten    --      1.9753                 0.2703                 0.1155

                      7                      8                      9
                      A                      A                      A
 Frequencies --    242.1651               274.6179               280.3479
 Red. masses --      1.4674                 2.1038                 1.5666
 Frc consts  --      0.0507                 0.0935                 0.0725
 IR Inten    --      0.1572                 1.0391                 1.0542

                     10                     11                     12
                      A                      A                      A
 Frequencies --    318.8056               344.0098               405.0265
 Red. masses --      3.1092                 4.5122                 3.2797
 Frc consts  --      0.1862                 0.3146                 0.3170
 IR Inten    --      0.6646                 7.0875                 6.0379

                     13                     14                     15
                      A                      A                      A
 Frequencies --    420.2872               463.1920               490.3330
 Red. masses --      3.0813                 1.1314                 3.6374
 Frc consts  --      0.3207                 0.1430                 0.5153
 IR Inten    --      8.6281               236.9518                 4.4116

                     16                     17                     18
                      A                      A                      A
 Frequencies --    522.0430               533.6923               578.6768
 Red. masses --      1.6796                 3.7003                 2.1272
 Frc consts  --      0.2697                 0.6210                 0.4197
 IR Inten    --      3.4299                51.1325                62.2993

                     19                     20                     21
                      A                      A                      A
 Frequencies --    580.9222               694.1749               705.1446
 Red. masses --      2.9099                 6.5603                 5.0122
 Frc consts  --      0.5786                 1.8626                 1.4684
 IR Inten    --      7.6488                47.1103                 3.1404

                     22                     23                     24
                      A                      A                      A
 Frequencies --    724.3256               822.7136               827.3124
 Red. masses --      1.8187                 4.0450                 1.6915
 Frc consts  --      0.5622                 1.6131                 0.6821
 IR Inten    --     88.9745                 8.0705                26.9490

                     25                     26                     27
                      A                      A                      A
 Frequencies --    931.4222               933.3310               949.7950
 Red. masses --      1.7747                 1.3726                 1.3800
 Frc consts  --      0.9071                 0.7045                 0.7335
 IR Inten    --      3.1664                 1.2520                 0.2765

                     28                     29                     30
                      A                      A                      A
 Frequencies --    955.5654               972.6834               996.8641
 Red. masses --      1.4068                 1.4898                 1.4525
 Frc consts  --      0.7568                 0.8304                 0.8504
 IR Inten    --      9.5419                 0.0079               170.5583

                     31                     32                     33
                      A                      A                      A
 Frequencies --   1014.5200              1020.3698              1034.0081
 Red. masses --      5.1738                 1.3407                 1.4529
 Frc consts  --      3.1375                 0.8225                 0.9152
 IR Inten    --     11.4939                 0.1497               178.2275

                     34                     35                     36
                      A                      A                      A
 Frequencies --   1068.7617              1118.3719              1139.0759
 Red. masses --      1.6078                 1.8417                 2.2848
 Frc consts  --      1.0821                 1.3572                 1.7466
 IR Inten    --     21.6926                 2.8183                 1.8744

                     37                     38                     39
                      A                      A                      A
 Frequencies --   1149.4921              1175.7462              1198.0472
 Red. masses --      1.5670                 1.9247                 1.1730
 Frc consts  --      1.2199                 1.5676                 0.9920
 IR Inten    --     35.7896                 0.7152                 3.3107

                     40                     41                     42
                      A                      A                      A
 Frequencies --   1244.1606              1297.1592              1342.6363
 Red. masses --      1.8965                 3.6004                 1.4066
 Frc consts  --      1.7297                 3.5694                 1.4940
 IR Inten    --     44.6270                42.7071                 3.5135

                     43                     44                     45
                      A                      A                      A
 Frequencies --   1343.2432              1357.5126              1371.6637
 Red. masses --      1.7787                 1.5871                 3.8224
 Frc consts  --      1.8909                 1.7232                 4.2372
 IR Inten    --     14.1062                29.0857               609.3826

                     46                     47                     48
                      A                      A                      A
 Frequencies --   1394.0038              1400.0640              1410.7714
 Red. masses --      1.2749                 4.7955                 1.2560
 Frc consts  --      1.4596                 5.5383                 1.4728
 IR Inten    --     12.9422               374.7648                27.6768

                     49                     50                     51
                      A                      A                      A
 Frequencies --   1467.7595              1478.5781              1483.1795
 Red. masses --      2.5729                 1.0442                 1.0507
 Frc consts  --      3.2657                 1.3450                 1.3617
 IR Inten    --     95.0748                 0.2020                 5.8767

                     52                     53                     54
                      A                      A                      A
 Frequencies --   1492.9100              1499.4669              1531.6708
 Red. masses --      1.0560                 1.1462                 2.5126
 Frc consts  --      1.3867                 1.5184                 3.4731
 IR Inten    --     16.0519                33.9938                16.8369

                     55                     56                     57
                      A                      A                      A
 Frequencies --   1649.3005              1669.7251              3050.5511
 Red. masses --      5.5510                 6.1772                 1.0349
 Frc consts  --      8.8966                10.1468                 5.6742
 IR Inten    --     19.9884                14.6195                33.3495

                     58                     59                     60
                      A                      A                      A
 Frequencies --   3052.8416              3069.5290              3121.8707
 Red. masses --      1.0361                 1.0844                 1.1029
 Frc consts  --      5.6896                 6.0199                 6.3332
 IR Inten    --     26.1822                19.0787                 2.4131

                     61                     62                     63
                      A                      A                      A
 Frequencies --   3126.5080              3130.2553              3131.0576
 Red. masses --      1.1017                 1.1035                 1.1032
 Frc consts  --      6.3452                 6.3707                 6.3720
 IR Inten    --     86.2055                23.8066                45.3188

                     64                     65                     66
                      A                      A                      A
 Frequencies --   3176.8882              3186.7496              3191.5167
 Red. masses --      1.0886                 1.0908                 1.0896
 Frc consts  --      6.4735                 6.5266                 6.5392
 IR Inten    --     15.0818                 7.1460                 8.6777

                     67                     68                     69
                      A                      A                      A
 Frequencies --   3211.1719              3853.3457              3882.7094
 Red. masses --      1.0967                 1.0652                 1.0660
 Frc consts  --      6.6632                 9.3184                 9.4681
 IR Inten    --     12.9290               187.8609               127.6860

 - Thermochemistry -
 -------------------
 Temperature   298.150 Kelvin.  Pressure   1.00000 Atm.
 Atom     1 has atomic number  8 and mass  15.99491

 Molecular mass:   164.10086 amu.
 Principal axes and moments of inertia in atomic units:
                           1         2         3
     Eigenvalues --  1016.647093569.955564196.90355
           X           -0.58514   0.79448   0.16252
           Y            0.65632   0.34625   0.67034
           Z           -0.47630  -0.49891   0.72404
 This molecule is an asymmetric top.
 Rotational symmetry number  1.
 Warning -- assumption of classical behavior for rotation
           may cause significant error
 Rotational temperatures (Kelvin)      0.08520     0.02426     0.02064
 Rotational constants (GHZ):           1.77519     0.50554     0.43002
 Zero-point vibrational energy     551381.4 (Joules/Mol)
                                  131.78331 (Kcal/Mol)
 Warning -- explicit consideration of  19 degrees of freedom as
           vibrations may cause significant error
 Vibrational temperatures:     33.73    51.19   174.54   182.80   205.29
          (Kelvin)            329.55   348.42   395.11   403.36   458.69
                              494.95   582.74   604.70   666.43   705.48
                              751.10   767.86   832.59   835.82   998.76
                             1014.55  1042.14  1183.70  1190.32  1340.11
                             1342.86  1366.54  1374.85  1399.47  1434.27
                             1459.67  1468.08  1487.71  1537.71  1609.09
                             1638.88  1653.86  1691.64  1723.72  1790.07
                             1866.32  1931.75  1932.63  1953.16  1973.52
                             2005.66  2014.38  2029.79  2111.78  2127.34
                             2133.96  2147.96  2157.40  2203.73  2372.98
                             2402.36  4389.06  4392.36  4416.37  4491.68
                             4498.35  4503.74  4504.89  4570.83  4585.02
                             4591.88  4620.16  5544.11  5586.35

 Zero-point correction=                           0.210010 (Hartree/Particle)
 Thermal correction to Energy=                    0.222225
 Thermal correction to Enthalpy=                  0.223170
 Thermal correction to Gibbs Free Energy=         0.170689
 Sum of electronic and zero-point Energies=           -525.944478
 Sum of electronic and thermal Energies=              -525.932262
 Sum of electronic and thermal Enthalpies=            -525.931318
 Sum of electronic and thermal Free Energies=         -525.983799

                     E (Thermal)             CV                S
                      KCal/Mol        Cal/Mol-Kelvin    Cal/Mol-Kelvin
 Total                  139.449             46.405            110.456
 Electronic               0.000              0.000              0.000
 Translational            0.889              2.981             41.194
 Rotational               0.889              2.981             31.100
 Vibrational            137.671             40.444             38.162
 Vibration     1          0.593              1.985              6.319
 Vibration     2          0.594              1.982              5.491
 Vibration     3          0.609              1.931              3.079
 Vibration     4          0.611              1.926              2.990
 Vibration     5          0.616              1.911              2.768
 Vibration     6          0.652              1.797              1.886
 Vibration     7          0.658              1.776              1.787
 Vibration     8          0.677              1.720              1.567
 Vibration     9          0.680              1.710              1.532
 Vibration    10          0.705              1.638              1.316
 Vibration    11          0.723              1.587              1.193
 Vibration    12          0.770              1.459              0.944
 Vibration    13          0.783              1.426              0.891
 Vibration    14          0.821              1.332              0.757
 Vibration    15          0.846              1.271              0.683
 Vibration    16          0.877              1.201              0.605
 Vibration    17          0.889              1.175              0.579
 Vibration    18          0.935              1.077              0.488
 Vibration    19          0.938              1.073              0.484

 Optimization completed.
    -- Stationary point found.
 Normal termination of Gaussian 16 at Mon May  5 07:49:57 2025.
