 Gaussian 16, Revision C.01,
 Gaussian 16:  AS64L-G16RevC.01  3-Jul-2019

 ----------------------------------------------------------------------
 # opt=(calcfc,tight) freq 6-311+g(d,p) nosymm scf=(qc,fermi,xqc) geom=
 connectivity int=ultrafine m062x
 ----------------------------------------------------------------------

 ----------------------
 4-CN-phboh2-opt-freq-2
 ----------------------
 Symbolic Z-matrix:
 Charge =  0 Multiplicity = 1

 SCF Done:  E(RM062X) =  -500.463202935     A.U. after   14 cycles
 SCF Done:  E(RM062X) =  -500.463203000     A.U. after    8 cycles
 Optimization completed.
    -- Stationary point found.
 Normal termination of Gaussian 16 at Mon May  5 07:49:18 2025.

 ----------------------------------------------------------------------
 #N Geom=AllCheck Guess=TCheck SCRF=Check GenChk RM062X/6-311+G(d,p) Fr
 eq
 ----------------------------------------------------------------------

 Structure from the checkpoint file:  "4-CN-phboh2-opt-freq-2.chk"
 ----------------------
 4-CN-phboh2-opt-freq-2
 ----------------------
 Charge =  0 Multiplicity = 1

                          Input orientation:
 ---------------------------------------------------------------------
 Center     Atomic      Atomic             Coordinates (Angstroms)
 Number     Number       Type             X           Y           Z
 ---------------------------------------------------------------------
      1          8           0        8.736799    7.359924    5.541354
      2          1           0        9.543590    7.006229    5.927132
      3          6           0        6.273520    7.026542    5.186123
      4          5           0        7.660411    6.558281    5.760621
      5          8           0        7.848828    5.403086    6.463936
      6          1           0        7.059902    4.878690    6.608567
      7          6           0        5.109756    6.259396    5.302902
      8          1           0        5.128774    5.293896    5.799926
      9          6           0        3.898314    6.698313    4.788399
     10          1           0        3.001274    6.099268    4.881971
     11          6           0        3.840922    7.932997    4.139149
     12          6           0        4.989244    8.717565    4.007185
     13          1           0        4.929083    9.672432    3.500019
     14          6           0        6.190259    8.259720    4.528140
     15          1           0        7.085657    8.862061    4.428545
     16          6           0        2.590701    8.397799    3.602625
     17          7           0        1.589978    8.768726    3.173831
 ---------------------------------------------------------------------

 SCF Done:  E(RM062X) =  -500.463203000     A.U. after    1 cycles

 Alpha  occ. eigenvalues --  -19.65601 -19.64778 -14.75991 -10.60488 -10.58542
 Alpha  occ. eigenvalues --  -10.58081 -10.57857 -10.57807 -10.57027 -10.55876
 Alpha  occ. eigenvalues --   -7.10353  -1.18637  -1.14960  -1.03138  -0.99388
 Alpha  occ. eigenvalues --   -0.89007  -0.87763  -0.74872  -0.72502  -0.67446
 Alpha  occ. eigenvalues --   -0.65732  -0.64043  -0.57802  -0.55553  -0.53735
 Alpha  occ. eigenvalues --   -0.52053  -0.50128  -0.49431  -0.48337  -0.47312
 Alpha  occ. eigenvalues --   -0.45015  -0.43982  -0.42570  -0.42190  -0.41021
 Alpha  occ. eigenvalues --   -0.40817  -0.33969  -0.33129
 Alpha virt. eigenvalues --   -0.04626  -0.01443  -0.00901   0.00640   0.01216
 Alpha virt. eigenvalues --    0.02309   0.03025   0.03712   0.04041   0.05555
 Alpha virt. eigenvalues --    0.06649   0.06832   0.07133   0.07424   0.08294

 Mulliken charges:
               1
     1  O   -0.349712
     2  H    0.307123
     3  C   -0.577775
     4  B    0.471597
     5  O   -0.339211
     6  H    0.254023
     7  C   -0.043379
     8  H    0.131987
     9  C   -0.345952
    10  H    0.178092
    11  C    1.901219
    12  C   -0.344097
    13  H    0.179628
    14  C   -0.147622
    15  H    0.191665
    16  C   -1.261862
    17  N   -0.205724
 Sum of Mulliken charges =   0.00000

 Dipole moment (field-independent basis, Debye):
    X=              3.2443    Y=             -2.4146    Z=              2.1217  Tot=              4.5670
 Quadrupole moment (field-independent basis, Debye-Ang):
   XX=            -41.4841   YY=            -94.8080   ZZ=            -46.0587
   XY=             19.0909   XZ=             20.3675   YZ=              2.4276

  Exact polarizability:     138.489     -11.174      94.903      25.368     -23.348      73.785
 Approx polarizability:     163.455      -6.744     124.005      24.877     -28.421      93.521

                      1                      2                      3
                      A                      A                      A
 Frequencies --     22.3278                73.8886               122.2697
 Red. masses --      4.5173                 8.2668                 8.5425
 Frc consts  --      0.0013                 0.0266                 0.0752
 IR Inten    --      2.3686                 2.4695                 4.9933

                      4                      5                      6
                      A                      A                      A
 Frequencies --    198.3795               201.3428               297.0862
 Red. masses --      6.7435                 5.7970                 7.6070
 Frc consts  --      0.1564                 0.1385                 0.3956
 IR Inten    --      3.1319                 3.5648                 3.3382

                      7                      8                      9
                      A                      A                      A
 Frequencies --    391.1071               400.2753               418.8158
 Red. masses --      2.9249                 3.5683                 5.4928
 Frc consts  --      0.2636                 0.3368                 0.5677
 IR Inten    --      8.0638                 3.8734                 5.8426

                     10                     11                     12
                      A                      A                      A
 Frequencies --    467.8492               478.5131               549.1032
 Red. masses --      1.2055                 4.6046                 2.0481
 Frc consts  --      0.1555                 0.6212                 0.3638
 IR Inten    --    132.7418                30.7840                38.2206

                     13                     14                     15
                      A                      A                      A
 Frequencies --    576.3728               589.2675               630.2466
 Red. masses --      7.3596                 1.8731                 4.8472
 Frc consts  --      1.4405                 0.3832                 1.1344
 IR Inten    --      0.2606                 0.1922                19.3972

                     16                     17                     18
                      A                      A                      A
 Frequencies --    657.8451               665.4679               760.0687
 Red. masses --      7.3536                 3.4523                 4.5305
 Frc consts  --      1.8750                 0.9008                 1.5421
 IR Inten    --      2.3342               119.4773                16.8715

                     19                     20                     21
                      A                      A                      A
 Frequencies --    811.9578               857.8019               884.1358
 Red. masses --      6.4652                 1.5113                 1.3300
 Frc consts  --      2.5113                 0.6552                 0.6126
 IR Inten    --      3.0101                23.9812                 9.5219

                     22                     23                     24
                      A                      A                      A
 Frequencies --    983.0409               989.3823              1022.7902
 Red. masses --      1.3793                 1.3419                 1.3631
 Frc consts  --      0.7853                 0.7739                 0.8401
 IR Inten    --    120.3861                 1.4679                 0.5189

                     25                     26                     27
                      A                      A                      A
 Frequencies --   1030.7268              1042.9275              1131.6263
 Red. masses --      1.7214                 2.4775                 2.5881
 Frc consts  --      1.0775                 1.5877                 1.9527
 IR Inten    --    145.3318                12.7891                32.8501

                     28                     29                     30
                      A                      A                      A
 Frequencies --   1142.0877              1209.6723              1239.6129
 Red. masses --      1.4679                 1.3171                 2.3849
 Frc consts  --      1.1281                 1.1356                 2.1592
 IR Inten    --     23.5248                 0.0659                 0.7105

                     31                     32                     33
                      A                      A                      A
 Frequencies --   1302.2028              1337.0870              1388.2072
 Red. masses --      9.8531                 1.2954                 4.4034
 Frc consts  --      9.8442                 1.3645                 4.9998
 IR Inten    --     22.5687                 1.6739               562.3766

                     34                     35                     36
                      A                      A                      A
 Frequencies --   1418.1259              1454.0051              1556.2165
 Red. masses --      3.6543                 4.6770                 2.6727
 Frc consts  --      4.3300                 5.8257                 3.8136
 IR Inten    --    101.5297               227.6433                12.5960

                     37                     38                     39
                      A                      A                      A
 Frequencies --   1627.3340              1684.7852              2406.8165
 Red. masses --      6.8331                 6.0853                12.6831
 Frc consts  --     10.6616                10.1770                43.2875
 IR Inten    --      9.2939                19.0062                30.8556

                     40                     41                     42
                      A                      A                      A
 Frequencies --   3180.3192              3215.7281              3228.8199
 Red. masses --      1.0894                 1.0892                 1.0945
 Frc consts  --      6.4918                 6.6364                 6.7230
 IR Inten    --     16.4238                 0.0657                 1.0635

                     43                     44                     45
                      A                      A                      A
 Frequencies --   3230.8169              3905.9863              3950.5383
 Red. masses --      1.0965                 1.0653                 1.0662
 Frc consts  --      6.7433                 9.5763                 9.8036
 IR Inten    --      0.3476               128.4279                59.4128

 - Thermochemistry -
 -------------------
 Temperature   298.150 Kelvin.  Pressure   1.00000 Atm.
 Atom     1 has atomic number  8 and mass  15.99491

 Molecular mass:   147.04916 amu.
 Principal axes and moments of inertia in atomic units:
                           1         2         3
     Eigenvalues --   489.892893301.675613791.06363
           X            0.87363   0.44347  -0.20025
           Y           -0.31477   0.82890   0.46243
           Z            0.37106  -0.34096   0.86374
 This molecule is an asymmetric top.
 Rotational symmetry number  1.
 Warning -- assumption of classical behavior for rotation
           may cause significant error
 Rotational temperatures (Kelvin)      0.17680     0.02623     0.02285
 Rotational constants (GHZ):           3.68395     0.54661     0.47605
 Zero-point vibrational energy     327375.9 (Joules/Mol)
                                   78.24472 (Kcal/Mol)
 Warning -- explicit consideration of  14 degrees of freedom as
           vibrations may cause significant error
 Vibrational temperatures:     32.12   106.31   175.92   285.42   289.69
          (Kelvin)            427.44   562.72   575.91   602.58   673.13
                              688.47   790.04   829.27   847.82   906.78
                              946.49   957.46  1093.57  1168.23  1234.19
                             1272.07  1414.38  1423.50  1471.57  1482.99
                             1500.54  1628.16  1643.21  1740.45  1783.53
                             1873.58  1923.77  1997.32  2040.37  2091.99
                             2239.05  2341.37  2424.03  3462.87  4575.77
                             4626.72  4645.55  4648.42  5619.84  5683.94

 Zero-point correction=                           0.124691 (Hartree/Particle)
 Thermal correction to Energy=                    0.134368
 Thermal correction to Enthalpy=                  0.135312
 Thermal correction to Gibbs Free Energy=         0.088406
 Sum of electronic and zero-point Energies=           -500.338512
 Sum of electronic and thermal Energies=              -500.328835
 Sum of electronic and thermal Enthalpies=            -500.327891
 Sum of electronic and thermal Free Energies=         -500.374797

                     E (Thermal)             CV                S
                      KCal/Mol        Cal/Mol-Kelvin    Cal/Mol-Kelvin
 Total                   84.317             36.118             98.722
 Electronic               0.000              0.000              0.000
 Translational            0.889              2.981             40.867
 Rotational               0.889              2.981             30.195
 Vibrational             82.540             30.157             27.660
 Vibration     1          0.593              1.985              6.416
 Vibration     2          0.599              1.966              4.047
 Vibration     3          0.610              1.931              3.064
 Vibration     4          0.637              1.842              2.148
 Vibration     5          0.638              1.838              2.121
 Vibration     6          0.691              1.679              1.433
 Vibration     7          0.759              1.489              0.996
 Vibration     8          0.766              1.470              0.962
 Vibration     9          0.782              1.429              0.896
 Vibration    10          0.825              1.321              0.744
 Vibration    11          0.835              1.298              0.714
 Vibration    12          0.904              1.142              0.546
 Vibration    13          0.933              1.082              0.492
 Vibration    14          0.947              1.055              0.468

 Optimization completed.
    -- Stationary point found.
 Normal termination of Gaussian 16 at Mon May  5 07:50:43 2025.
