 Gaussian 16, Revision C.01,
 Gaussian 16:  AS64L-G16RevC.01  3-Jul-2019

 ----------------------------------------------------------------------
 # opt=(calcfc,tight) freq 6-311+g(d,p) nosymm scf=(qc,fermi,xqc) geom=
 connectivity int=ultrafine m062x
 ----------------------------------------------------------------------

 --------------------
 4-Me-phboh2-opt-freq
 --------------------
 Symbolic Z-matrix:
 Charge =  0 Multiplicity = 1

 SCF Done:  E(RM062X) =  -447.530136077     A.U. after   14 cycles
 SCF Done:  E(RM062X) =  -447.531888611     A.U. after   12 cycles
 SCF Done:  E(RM062X) =  -447.531902554     A.U. after   12 cycles
 SCF Done:  E(RM062X) =  -447.531903816     A.U. after   11 cycles
 SCF Done:  E(RM062X) =  -447.531904121     A.U. after   10 cycles
 SCF Done:  E(RM062X) =  -447.531904136     A.U. after    8 cycles
 SCF Done:  E(RM062X) =  -447.531904137     A.U. after    6 cycles
 SCF Done:  E(RM062X) =  -447.531904137     A.U. after    4 cycles
 Optimization completed.
    -- Stationary point found.
 Normal termination of Gaussian 16 at Mon Apr 21 18:03:48 2025.

 ----------------------------------------------------------------------
 #N Geom=AllCheck Guess=TCheck SCRF=Check GenChk RM062X/6-311+G(d,p) Fr
 eq
 ----------------------------------------------------------------------

 Structure from the checkpoint file:  "4-Me-phboh2-opt-freq.chk"
 --------------------
 4-Me-phboh2-opt-freq
 --------------------
 Charge =  0 Multiplicity = 1

                          Input orientation:
 ---------------------------------------------------------------------
 Center     Atomic      Atomic             Coordinates (Angstroms)
 Number     Number       Type             X           Y           Z
 ---------------------------------------------------------------------
      1          8           0        8.699194    7.451204    5.543347
      2          1           0        9.508728    7.130989    5.951190
      3          6           0        6.250609    6.996402    5.177434
      4          5           0        7.647008    6.613959    5.769676
      5          8           0        7.885381    5.484812    6.507818
      6          1           0        7.112687    4.936526    6.651956
      7          6           0        5.118783    6.187926    5.317396
      8          1           0        5.175405    5.243293    5.852864
      9          6           0        3.890807    6.559656    4.782621
     10          1           0        3.027877    5.914169    4.909250
     11          6           0        3.753302    7.758692    4.083176
     12          6           0        4.878201    8.574164    3.940166
     13          1           0        4.787832    9.513461    3.403847
     14          6           0        6.102877    8.199016    4.474850
     15          1           0        6.966475    8.843805    4.354867
     16          6           0        2.433787    8.154631    3.474698
     17          1           0        2.400905    7.876435    2.417578
     18          1           0        1.601964    7.658256    3.976169
     19          1           0        2.280251    9.233246    3.537099
 ---------------------------------------------------------------------

 SCF Done:  E(RM062X) =  -447.531904137     A.U. after    1 cycles

 Alpha  occ. eigenvalues --  -19.63708 -19.62901 -10.55741 -10.55124 -10.54349
 Alpha  occ. eigenvalues --  -10.54294 -10.54066 -10.53755 -10.52676  -7.08186
 Alpha  occ. eigenvalues --   -1.16731  -1.13010  -0.96580  -0.87378  -0.84505
 Alpha  occ. eigenvalues --   -0.78098  -0.69474  -0.67455  -0.64959  -0.62806
 Alpha  occ. eigenvalues --   -0.57671  -0.53368  -0.52557  -0.49880  -0.49468
 Alpha  occ. eigenvalues --   -0.48904  -0.47722  -0.45531  -0.45186  -0.43937
 Alpha  occ. eigenvalues --   -0.42453  -0.40363  -0.39720  -0.38147  -0.30994
 Alpha  occ. eigenvalues --   -0.30069
 Alpha virt. eigenvalues --   -0.00224  -0.00185   0.01553   0.01574   0.01758
 Alpha virt. eigenvalues --    0.03348   0.03393   0.03844   0.04804   0.05309
 Alpha virt. eigenvalues --    0.06602   0.06953   0.08720   0.09297   0.09691

 Mulliken charges:
               1
     1  O   -0.359826
     2  H    0.302035
     3  C   -0.606768
     4  B    0.466844
     5  O   -0.346994
     6  H    0.250944
     7  C   -0.064839
     8  H    0.118986
     9  C   -0.535615
    10  H    0.151623
    11  C    0.906357
    12  C   -0.363275
    13  H    0.155936
    14  C   -0.130763
    15  H    0.179397
    16  C   -0.662235
    17  H    0.201406
    18  H    0.166700
    19  H    0.170087
 Sum of Mulliken charges =   0.00000

 Dipole moment (field-independent basis, Debye):
    X=             -1.4474    Y=             -0.7305    Z=              0.0523  Tot=              1.6221
 Quadrupole moment (field-independent basis, Debye-Ang):
   XX=            -70.4036   YY=            -66.1505   ZZ=            -59.2865
   XY=            -14.1527   XZ=             -4.3944   YZ=             -7.2288

  Exact polarizability:     124.286      -2.429      94.430      19.342     -20.262      76.629
 Approx polarizability:     141.640       4.220     123.829      15.266     -24.352      96.514

                      1                      2                      3
                      A                      A                      A
 Frequencies --     24.2521                30.2694                93.5609
 Red. masses --      3.2663                 1.1291                 4.2024
 Frc consts  --      0.0011                 0.0006                 0.0217
 IR Inten    --      3.1319                 0.3555                 0.6702

                      4                      5                      6
                      A                      A                      A
 Frequencies --    154.3851               253.4389               313.2747
 Red. masses --      4.8009                 3.8484                 5.8409
 Frc consts  --      0.0674                 0.1456                 0.3377
 IR Inten    --      2.3679                 0.1226                 5.2036

                      7                      8                      9
                      A                      A                      A
 Frequencies --    334.3301               400.5938               435.6825
 Red. masses --      2.9820                 2.4354                 4.1659
 Frc consts  --      0.1964                 0.2303                 0.4659
 IR Inten    --      2.5057                12.1013                 3.9522

                     10                     11                     12
                      A                      A                      A
 Frequencies --    459.6600               475.6281               504.1136
 Red. masses --      2.2653                 1.2390                 3.8550
 Frc consts  --      0.2820                 0.1651                 0.5772
 IR Inten    --      0.1475               166.8755                33.9806

                     13                     14                     15
                      A                      A                      A
 Frequencies --    556.4619               651.6613               665.4087
 Red. masses --      1.2940                 6.9320                 4.0865
 Frc consts  --      0.2361                 1.7344                 1.0661
 IR Inten    --      6.8448                 0.4749                99.8017

                     16                     17                     18
                      A                      A                      A
 Frequencies --    669.3410               745.7544               826.3989
 Red. masses --      4.2859                 3.1027                 3.9390
 Frc consts  --      1.1313                 1.0167                 1.5849
 IR Inten    --     14.3048                29.2823                 2.7343

                     19                     20                     21
                      A                      A                      A
 Frequencies --    835.3611               874.8805               975.0127
 Red. masses --      1.6654                 1.2618                 1.3239
 Frc consts  --      0.6847                 0.5690                 0.7415
 IR Inten    --     17.4441                 1.5667                 0.3860

                     22                     23                     24
                      A                      A                      A
 Frequencies --    987.7336              1010.6114              1015.1983
 Red. masses --      1.4542                 1.4140                 1.3628
 Frc consts  --      0.8359                 0.8509                 0.8275
 IR Inten    --    104.2467                 7.0948                 0.4508

                     25                     26                     27
                      A                      A                      A
 Frequencies --   1030.6179              1041.3955              1065.1718
 Red. masses --      1.7008                 2.3018                 1.5807
 Frc consts  --      1.0644                 1.4708                 1.0567
 IR Inten    --    137.6289                20.6883                 8.9606

                     28                     29                     30
                      A                      A                      A
 Frequencies --   1135.0295              1145.5321              1216.2666
 Red. masses --      2.2609                 1.5075                 1.1270
 Frc consts  --      1.7161                 1.1655                 0.9823
 IR Inten    --     24.6632                39.3993                 5.2719

                     31                     32                     33
                      A                      A                      A
 Frequencies --   1249.7962              1304.3411              1339.7428
 Red. masses --      2.6601                 6.1849                 1.3610
 Frc consts  --      2.4481                 6.1996                 1.4393
 IR Inten    --      2.0618                11.8484                 1.8837

                     34                     35                     36
                      A                      A                      A
 Frequencies --   1390.2189              1410.8244              1415.2209
 Red. masses --      4.2634                 4.1902                 1.3163
 Frc consts  --      4.8549                 4.9140                 1.5533
 IR Inten    --    508.1702               207.7881                21.0182

                     37                     38                     39
                      A                      A                      A
 Frequencies --   1447.1170              1494.0965              1497.2573
 Red. masses --      3.0227                 1.0583                 1.1218
 Frc consts  --      3.7295                 1.3920                 1.4817
 IR Inten    --    112.1460                11.6071                31.5758

                     40                     41                     42
                      A                      A                      A
 Frequencies --   1563.9270              1634.8409              1685.9963
 Red. masses --      2.8229                 5.9516                 6.1950
 Frc consts  --      4.0680                 9.3720                10.3754
 IR Inten    --      8.8368                 5.7480                66.9541

                     43                     44                     45
                      A                      A                      A
 Frequencies --   3063.2470              3127.3396              3150.8825
 Red. masses --      1.0379                 1.0985                 1.1030
 Frc consts  --      5.7380                 6.3299                 6.4521
 IR Inten    --     17.9801                10.7396                10.6071

                     46                     47                     48
                      A                      A                      A
 Frequencies --   3161.4569              3187.9132              3198.6599
 Red. masses --      1.0881                 1.0892                 1.0934
 Frc consts  --      6.4074                 6.5217                 6.5911
 IR Inten    --     23.0013                 7.3674                13.5515

                     49                     50                     51
                      A                      A                      A
 Frequencies --   3213.4256              3909.4762              3949.3846
 Red. masses --      1.0941                 1.0653                 1.0660
 Frc consts  --      6.6563                 9.5928                 9.7959
 IR Inten    --      3.4958               109.1315                53.4795

 - Thermochemistry -
 -------------------
 Temperature   298.150 Kelvin.  Pressure   1.00000 Atm.
 Atom     1 has atomic number  8 and mass  15.99491

 Molecular mass:   136.06956 amu.
 Principal axes and moments of inertia in atomic units:
                           1         2         3
     Eigenvalues --   496.633022445.726262930.82362
           X            0.88562   0.40457  -0.22804
           Y           -0.25849   0.83735   0.48169
           Z            0.38583  -0.36765   0.84615
 This molecule is an asymmetric top.
 Rotational symmetry number  1.
 Warning -- assumption of classical behavior for rotation
           may cause significant error
 Rotational temperatures (Kelvin)      0.17440     0.03541     0.02955
 Rotational constants (GHZ):           3.63395     0.73792     0.61578
 Zero-point vibrational energy     402676.1 (Joules/Mol)
                                   96.24190 (Kcal/Mol)
 Warning -- explicit consideration of  13 degrees of freedom as
           vibrations may cause significant error
 Vibrational temperatures:     34.89    43.55   134.61   222.13   364.64
          (Kelvin)            450.73   481.03   576.37   626.85   661.35
                              684.32   725.31   800.62   937.60   957.37
                              963.03  1072.97  1189.00  1201.90  1258.76
                             1402.83  1421.13  1454.04  1460.64  1482.83
                             1498.34  1532.54  1633.05  1648.17  1749.94
                             1798.18  1876.66  1927.59  2000.21  2029.86
                             2036.19  2082.08  2149.67  2154.22  2250.14
                             2352.17  2425.77  4407.33  4499.54  4533.42
                             4548.63  4586.70  4602.16  4623.40  5624.86
                             5682.28

 Zero-point correction=                           0.153371 (Hartree/Particle)
 Thermal correction to Energy=                    0.163171
 Thermal correction to Enthalpy=                  0.164115
 Thermal correction to Gibbs Free Energy=         0.116550
 Sum of electronic and zero-point Energies=           -447.378533
 Sum of electronic and thermal Energies=              -447.368733
 Sum of electronic and thermal Enthalpies=            -447.367789
 Sum of electronic and thermal Free Energies=         -447.415355

                     E (Thermal)             CV                S
                      KCal/Mol        Cal/Mol-Kelvin    Cal/Mol-Kelvin
 Total                  102.391             36.209            100.110
 Electronic               0.000              0.000              0.000
 Translational            0.889              2.981             40.636
 Rotational               0.889              2.981             29.655
 Vibrational            100.614             30.248             29.819
 Vibration     1          0.593              1.985              6.251
 Vibration     2          0.594              1.984              5.812
 Vibration     3          0.603              1.954              3.584
 Vibration     4          0.620              1.898              2.617
 Vibration     5          0.665              1.757              1.707
 Vibration     6          0.701              1.648              1.345
 Vibration     7          0.716              1.607              1.239
 Vibration     8          0.766              1.469              0.960
 Vibration     9          0.796              1.392              0.840
 Vibration    10          0.818              1.340              0.767
 Vibration    11          0.832              1.304              0.722
 Vibration    12          0.859              1.241              0.648
 Vibration    13          0.912              1.126              0.531

 Optimization completed.
    -- Stationary point found.
 Normal termination of Gaussian 16 at Mon Apr 21 18:05:28 2025.
