 Gaussian 16, Revision C.01,
 Gaussian 16:  AS64L-G16RevC.01  3-Jul-2019

 ----------------------------------------------------------------------
 # opt=(calcfc,tight) freq 6-311+g(d,p) nosymm scf=(qc,fermi,xqc) geom=
 connectivity int=ultrafine m062x
 ----------------------------------------------------------------------

 --------------------
 4-br-phboh2-opt-freq
 --------------------
 Symbolic Z-matrix:
 Charge =  0 Multiplicity = 1

 SCF Done:  E(RM062X) =  -2981.79736136     A.U. after   14 cycles
 SCF Done:  E(RM062X) =  -2981.79756458     A.U. after   11 cycles
 SCF Done:  E(RM062X) =  -2981.79756461     A.U. after    7 cycles
 Optimization completed.
    -- Stationary point found.
 Normal termination of Gaussian 16 at Sat Apr 19 13:15:19 2025.

 ----------------------------------------------------------------------
 #N Geom=AllCheck Guess=TCheck SCRF=Check GenChk RM062X/6-311+G(d,p) Fr
 eq
 ----------------------------------------------------------------------

 Structure from the checkpoint file:  "4-br-phboh2-opt-freq.chk"
 --------------------
 4-br-phboh2-opt-freq
 --------------------
 Charge =  0 Multiplicity = 1

                          Input orientation:
 ---------------------------------------------------------------------
 Center     Atomic      Atomic             Coordinates (Angstroms)
 Number     Number       Type             X           Y           Z
 ---------------------------------------------------------------------
      1          8           0        8.684881    7.455970    5.540714
      2          1           0        9.498150    7.149504    5.951999
      3          6           0        6.242598    6.994953    5.172357
      4          5           0        7.639813    6.614287    5.772586
      5          8           0        7.876771    5.491844    6.517256
      6          1           0        7.107399    4.942752    6.674912
      7          6           0        5.117512    6.173113    5.287159
      8          1           0        5.177165    5.217898    5.801758
      9          6           0        3.888273    6.536175    4.749139
     10          1           0        3.024094    5.891631    4.843988
     11          6           0        3.786551    7.749526    4.081084
     12          6           0        4.880975    8.594145    3.942349
     13          1           0        4.778652    9.534651    3.416566
     14          6           0        6.098594    8.207551    4.488090
     15          1           0        6.960137    8.857503    4.384917
     16         35           0        2.114354    8.263866    3.342179
 ---------------------------------------------------------------------

 SCF Done:  E(RM062X) =  -2981.79756461     A.U. after    1 cycles

 Alpha  occ. eigenvalues -- -485.33981 -63.33172 -57.15919 -57.15663 -57.15655
 Alpha  occ. eigenvalues --  -19.64704 -19.63876 -10.61442 -10.56862 -10.56554
 Alpha  occ. eigenvalues --  -10.56298 -10.56022 -10.54326  -9.01890  -7.09337
 Alpha  occ. eigenvalues --   -6.84688  -6.83657  -6.83641  -2.87845  -2.87486
 Alpha  occ. eigenvalues --   -2.87466  -2.86553  -2.86552  -1.17731  -1.14033
 Alpha  occ. eigenvalues --   -0.99064  -0.90841  -0.86567  -0.82481  -0.71419
 Alpha  occ. eigenvalues --   -0.69419  -0.66240  -0.64074  -0.59256  -0.54409
 Alpha  occ. eigenvalues --   -0.54038  -0.51256  -0.50809  -0.49051  -0.46547
 Alpha  occ. eigenvalues --   -0.46418  -0.45178  -0.42360  -0.41349  -0.39594
 Alpha  occ. eigenvalues --   -0.38273  -0.35439  -0.32777  -0.30498
 Alpha virt. eigenvalues --   -0.01817  -0.00949   0.00091   0.01146   0.01426
 Alpha virt. eigenvalues --    0.01960   0.02851   0.03384   0.04074   0.05055
 Alpha virt. eigenvalues --    0.05324   0.06581   0.07490   0.07888   0.08850

 Mulliken charges:
               1
     1  O   -0.368289
     2  H    0.308720
     3  C   -0.511111
     4  B    0.475030
     5  O   -0.356730
     6  H    0.252821
     7  C   -0.087528
     8  H    0.129013
     9  C   -0.419673
    10  H    0.177645
    11  C    0.792290
    12  C   -0.393304
    13  H    0.179935
    14  C   -0.201747
    15  H    0.188940
    16  Br  -0.166013
 Sum of Mulliken charges =   0.00000

 Dipole moment (field-independent basis, Debye):
    X=              0.7190    Y=             -1.3834    Z=              1.0834  Tot=              1.8986
 Quadrupole moment (field-independent basis, Debye-Ang):
   XX=            -63.2988   YY=            -85.9809   ZZ=            -61.6085
   XY=              0.3944   XZ=              8.9527   YZ=             -2.5723

  Exact polarizability:     141.146      -7.517      97.116      26.413     -21.749      80.105
 Approx polarizability:     161.284      -0.774     128.795      22.935     -26.241     101.093

                      1                      2                      3
                      A                      A                      A
 Frequencies --     27.2871                72.7409               130.8658
 Red. masses --      4.5531                 7.8452                 7.2922
 Frc consts  --      0.0020                 0.0245                 0.0736
 IR Inten    --      2.8397                 0.0327                 1.8554

                      4                      5                      6
                      A                      A                      A
 Frequencies --    230.2318               238.9384               266.3257
 Red. masses --      6.0358                12.6090                 5.5719
 Frc consts  --      0.1885                 0.4241                 0.2329
 IR Inten    --      0.1742                 1.3457                 2.3057

                      7                      8                      9
                      A                      A                      A
 Frequencies --    400.3365               409.4910               430.1835
 Red. masses --      2.4792                 5.1180                 4.9739
 Frc consts  --      0.2341                 0.5056                 0.5423
 IR Inten    --     13.1820                22.4813                 6.9011

                     10                     11                     12
                      A                      A                      A
 Frequencies --    455.0655               474.2311               558.4239
 Red. masses --      2.5155                 1.2749                 1.3242
 Frc consts  --      0.3069                 0.1689                 0.2433
 IR Inten    --      0.6976               163.8349                 9.0476

                     13                     14                     15
                      A                      A                      A
 Frequencies --    572.1825               641.2502               660.5226
 Red. masses --      4.1985                 7.0725                 3.9885
 Frc consts  --      0.8099                 1.7135                 1.0253
 IR Inten    --     23.5046                 0.9822                95.0462

                     16                     17                     18
                      A                      A                      A
 Frequencies --    742.0995               760.1272               840.4060
 Red. masses --      4.0382                 6.2425                 1.5006
 Frc consts  --      1.3103                 2.1251                 0.6244
 IR Inten    --     36.1575                26.1304                22.6284

                     19                     20                     21
                      A                      A                      A
 Frequencies --    865.7891               974.4244               984.5549
 Red. masses --      1.2949                 1.3268                 1.4298
 Frc consts  --      0.5719                 0.7422                 0.8166
 IR Inten    --      5.8979                 0.5827               104.6484

                     22                     23                     24
                      A                      A                      A
 Frequencies --   1012.5228              1023.9118              1035.0943
 Red. masses --      1.3622                 3.1153                 1.7177
 Frc consts  --      0.8228                 1.9243                 1.0843
 IR Inten    --      0.3230               145.7649                63.8949

                     25                     26                     27
                      A                      A                      A
 Frequencies --   1105.5715              1131.9091              1140.0360
 Red. masses --      3.5651                 1.8138                 1.6110
 Frc consts  --      2.5674                 1.3692                 1.2336
 IR Inten    --     25.5916                23.1042                57.9952

                     28                     29                     30
                      A                      A                      A
 Frequencies --   1215.4917              1294.7874              1328.9099
 Red. masses --      1.1253                10.6394                 1.2655
 Frc consts  --      0.9795                10.5091                 1.3167
 IR Inten    --      0.7113                13.6386                 0.7014

                     31                     32                     33
                      A                      A                      A
 Frequencies --   1388.5454              1407.6653              1446.5121
 Red. masses --      4.1445                 3.5703                 4.8056
 Frc consts  --      4.7081                 4.1682                 5.9244
 IR Inten    --    548.8810               106.8583               240.2009

                     34                     35                     36
                      A                      A                      A
 Frequencies --   1535.6290              1633.0124              1662.3743
 Red. masses --      2.5628                 7.0843                 5.9561
 Frc consts  --      3.5608                11.1308                 9.6978
 IR Inten    --      1.9820                 9.8532               123.7145

                     37                     38                     39
                      A                      A                      A
 Frequencies --   3172.8636              3212.5798              3230.2904
 Red. masses --      1.0893                 1.0893                 1.0956
 Frc consts  --      6.4610                 6.6238                 6.7359
 IR Inten    --     19.5195                 0.4493                 0.3617

                     40                     41                     42
                      A                      A                      A
 Frequencies --   3234.3351              3909.0778              3950.7999
 Red. masses --      1.0941                 1.0653                 1.0661
 Frc consts  --      6.7436                 9.5913                 9.8042
 IR Inten    --      0.4158               121.2636                56.4466

 - Thermochemistry -
 -------------------
 Temperature   298.150 Kelvin.  Pressure   1.00000 Atm.
 Atom     1 has atomic number  8 and mass  15.99491

 Molecular mass:   199.96442 amu.
 Principal axes and moments of inertia in atomic units:
                           1         2         3
     Eigenvalues --   488.948715134.204325622.26605
           X            0.88328   0.40659  -0.23343
           Y           -0.26270   0.84161   0.47188
           Z            0.38833  -0.35549   0.85020
 This molecule is an asymmetric top.
 Rotational symmetry number  1.
 Warning -- assumption of classical behavior for rotation
           may cause significant error
 Rotational temperatures (Kelvin)      0.17714     0.01687     0.01541
 Rotational constants (GHZ):           3.69106     0.35151     0.32100
 Zero-point vibrational energy     303895.7 (Joules/Mol)
                                   72.63282 (Kcal/Mol)
 Warning -- explicit consideration of  13 degrees of freedom as
           vibrations may cause significant error
 Vibrational temperatures:     39.26   104.66   188.29   331.25   343.78
          (Kelvin)            383.18   575.99   589.17   618.94   654.74
                              682.31   803.45   823.24   922.62   950.34
                             1067.72  1093.65  1209.16  1245.68  1401.98
                             1416.55  1456.79  1473.18  1489.27  1590.67
                             1628.56  1640.26  1748.82  1862.91  1912.00
                             1997.81  2025.32  2081.21  2209.43  2349.54
                             2391.79  4565.04  4622.19  4647.67  4653.49
                             5624.29  5684.32

 Zero-point correction=                           0.115748 (Hartree/Particle)
 Thermal correction to Energy=                    0.125065
 Thermal correction to Enthalpy=                  0.126009
 Thermal correction to Gibbs Free Energy=         0.079068
 Sum of electronic and zero-point Energies=          -2981.681817
 Sum of electronic and thermal Energies=             -2981.672500
 Sum of electronic and thermal Enthalpies=           -2981.671555
 Sum of electronic and thermal Free Energies=        -2981.718497

                     E (Thermal)             CV                S
                      KCal/Mol        Cal/Mol-Kelvin    Cal/Mol-Kelvin
 Total                   78.479             34.367             98.796
 Electronic               0.000              0.000              0.000
 Translational            0.889              2.981             41.784
 Rotational               0.889              2.981             31.024
 Vibrational             76.702             28.406             25.989
 Vibration     1          0.593              1.984              6.017
 Vibration     2          0.599              1.967              4.078
 Vibration     3          0.612              1.922              2.933
 Vibration     4          0.652              1.795              1.877
 Vibration     5          0.657              1.781              1.811
 Vibration     6          0.672              1.735              1.620
 Vibration     7          0.766              1.469              0.961
 Vibration     8          0.774              1.450              0.928
 Vibration     9          0.791              1.405              0.858
 Vibration    10          0.813              1.350              0.781
 Vibration    11          0.831              1.307              0.726
 Vibration    12          0.914              1.121              0.527
 Vibration    13          0.928              1.091              0.500

 Optimization completed.
    -- Stationary point found.
 Normal termination of Gaussian 16 at Sat Apr 19 13:16:41 2025.
