 Gaussian 16, Revision C.01,
 Gaussian 16:  AS64L-G16RevC.01  3-Jul-2019

 ----------------------------------------------------------------------
 # opt=(calcfc,tight) freq 6-311+g(d,p) scrf=(smd,solvent=thf) nosymm s
 cf=(qc,fermi,xqc) geom=connectivity int=ultrafine m062x
 ----------------------------------------------------------------------

 --------------------------
 4-br-ph-anion-opt-freq-thf
 --------------------------
 Symbolic Z-matrix:
 Charge = -1 Multiplicity = 1

 SCF Done:  E(RM062X) =  -2805.20904208     A.U. after   18 cycles
 SCF Done:  E(RM062X) =  -2805.22252325     A.U. after   13 cycles
 SCF Done:  E(RM062X) =  -2805.22291094     A.U. after   12 cycles
 SCF Done:  E(RM062X) =  -2805.22291300     A.U. after   10 cycles
 SCF Done:  E(RM062X) =  -2805.22291301     A.U. after    8 cycles
 SCF Done:  E(RM062X) =  -2805.22291302     A.U. after    7 cycles
 Optimization completed.
    -- Stationary point found.
 Normal termination of Gaussian 16 at Tue May 27 04:25:24 2025.

 ----------------------------------------------------------------------
 #N Geom=AllCheck Guess=TCheck SCRF=Check GenChk RM062X/6-311+G(d,p) Fr
 eq
 ----------------------------------------------------------------------

 Structure from the checkpoint file:  "4-br-ph-anion-opt-freq-thf.chk"
 --------------------------
 4-br-ph-anion-opt-freq-thf
 --------------------------
 Charge = -1 Multiplicity = 1

                          Input orientation:
 ---------------------------------------------------------------------
 Center     Atomic      Atomic             Coordinates (Angstroms)
 Number     Number       Type             X           Y           Z
 ---------------------------------------------------------------------
      1          6           0        6.304861    6.972904    5.201942
      2          6           0        5.128104    6.195005    5.296163
      3          1           0        5.155831    5.238863    5.820676
      4          6           0        3.883273    6.548997    4.758719
      5          1           0        3.018697    5.902419    4.869138
      6          6           0        3.779193    7.752086    4.076852
      7          6           0        4.878869    8.584397    3.933351
      8          1           0        4.790668    9.524754    3.398983
      9          6           0        6.097653    8.178688    4.493512
     10          1           0        6.930127    8.869348    4.351966
     11         35           0        2.089907    8.272460    3.322009
 ---------------------------------------------------------------------

 SCF Done:  E(RM062X) =  -2805.22291302     A.U. after    1 cycles

 Alpha  occ. eigenvalues -- -485.30927 -63.30120 -57.12855 -57.12616 -57.12615
 Alpha  occ. eigenvalues --  -10.56428 -10.51449 -10.51445 -10.49780 -10.49780
 Alpha  occ. eigenvalues --  -10.45379  -8.98830  -6.81577  -6.80622  -6.80618
 Alpha  occ. eigenvalues --   -2.84735  -2.84398  -2.84395  -2.83547  -2.83547
 Alpha  occ. eigenvalues --   -0.93337  -0.85380  -0.80481  -0.76025  -0.64714
 Alpha  occ. eigenvalues --   -0.62134  -0.52693  -0.48023  -0.47424  -0.44960
 Alpha  occ. eigenvalues --   -0.42003  -0.39909  -0.35247  -0.33914  -0.32472
 Alpha  occ. eigenvalues --   -0.27488  -0.24950  -0.20123
 Alpha virt. eigenvalues --    0.02668   0.03546   0.04749   0.04755   0.04779
 Alpha virt. eigenvalues --    0.06944   0.07019   0.07240   0.08034   0.09188
 Alpha virt. eigenvalues --    0.09674   0.10477   0.11348   0.11429   0.13497

 Mulliken charges:
               1
     1  C   -1.057097
     2  C    0.016640
     3  H    0.156043
     4  C   -0.500798
     5  H    0.176442
     6  C    0.594248
     7  C   -0.500660
     8  H    0.176360
     9  C    0.017280
    10  H    0.156115
    11  Br  -0.234573
 Sum of Mulliken charges =  -1.00000

 Dipole moment (field-independent basis, Debye):
    X=            -27.9626    Y=            -34.2076    Z=            -23.9487  Tot=             50.2554
 Quadrupole moment (field-independent basis, Debye-Ang):
   XX=           -236.5594   YY=           -301.3135   ZZ=           -182.9263
   XY=           -192.4404   XZ=           -146.4052   YZ=           -170.8912

  Exact polarizability:     169.125      -6.737     125.067      28.010     -25.285     103.212
 Approx polarizability:     148.170      -1.482     120.362      19.863     -22.333      97.500

                      1                      2                      3
                      A                      A                      A
 Frequencies --    166.6624               252.7277               314.6303
 Red. masses --      7.5524                 5.3932                12.3562
 Frc consts  --      0.1236                 0.2030                 0.7207
 IR Inten    --     19.0140                 3.9514                 0.0074

                      4                      5                      6
                      A                      A                      A
 Frequencies --    372.8709               455.6546               634.5140
 Red. masses --      2.6614                 3.8833                 7.0695
 Frc consts  --      0.2180                 0.4750                 1.6769
 IR Inten    --      0.0046                44.8080                 0.0311

                      7                      8                      9
                      A                      A                      A
 Frequencies --    664.6363               703.5627               799.1605
 Red. masses --      7.7321                 3.7685                 1.3677
 Frc consts  --      2.0124                 1.0991                 0.5147
 IR Inten    --     42.7637                 0.2878                54.6324

                     10                     11                     12
                      A                      A                      A
 Frequencies --    856.7178               970.4932               982.4669
 Red. masses --      1.2556                 1.2688                 7.4680
 Frc consts  --      0.5430                 0.7041                 4.2471
 IR Inten    --      0.0144                 1.6722                32.6914

                     13                     14                     15
                      A                      A                      A
 Frequencies --    994.6806              1020.8200              1094.8024
 Red. masses --      1.4281                 4.8197                 1.5773
 Frc consts  --      0.8325                 2.9592                 1.1139
 IR Inten    --      0.0514                57.9283                 2.2733

                     16                     17                     18
                      A                      A                      A
 Frequencies --   1104.7453              1204.7824              1239.4794
 Red. masses --      2.0476                 1.1758                 9.5338
 Frc consts  --      1.4723                 1.0055                 8.6297
 IR Inten    --     13.4628                 0.0895                27.2601

                     19                     20                     21
                      A                      A                      A
 Frequencies --   1327.5966              1378.5469              1483.1310
 Red. masses --      1.2551                 2.2152                 1.9972
 Frc consts  --      1.3034                 2.4803                 2.5884
 IR Inten    --      0.9519                11.1543                 9.0636

                     22                     23                     24
                      A                      A                      A
 Frequencies --   1568.9500              1598.0885              3110.9111
 Red. masses --      5.3932                 6.7230                 1.0868
 Frc consts  --      7.8220                10.1161                 6.1970
 IR Inten    --     43.9545                10.1289                76.9761

                     25                     26                     27
                      A                      A                      A
 Frequencies --   3113.7819              3192.5719              3196.8358
 Red. masses --      1.0869                 1.0933                 1.0930
 Frc consts  --      6.2088                 6.5653                 6.5815
 IR Inten    --     57.1092                13.6662                14.0894

 - Thermochemistry -
 -------------------
 Temperature   298.150 Kelvin.  Pressure   1.00000 Atm.
 Atom     1 has atomic number  6 and mass  12.00000

 Molecular mass:   154.94964 amu.
 Principal axes and moments of inertia in atomic units:
                           1         2         3
     Eigenvalues --   309.275641808.572452117.84744
           X            0.87901   0.41282  -0.23857
           Y           -0.27092   0.84418   0.46256
           Z            0.39236  -0.34196   0.85388
 This molecule is an asymmetric top.
 Rotational symmetry number  1.
 Rotational temperatures (Kelvin)      0.28005     0.04789     0.04090
 Rotational constants (GHZ):           5.83538     0.99788     0.85216
 Zero-point vibrational energy     202191.8 (Joules/Mol)
                                   48.32499 (Kcal/Mol)
 Warning -- explicit consideration of   5 degrees of freedom as
           vibrations may cause significant error
 Vibrational temperatures:    239.79   363.62   452.68   536.48   655.59
          (Kelvin)            912.92   956.26  1012.27  1149.81  1232.63
                             1396.32  1413.55  1431.12  1468.73  1575.18
                             1589.48  1733.41  1783.33  1910.12  1983.42
                             2133.89  2257.37  2299.29  4475.91  4480.04
                             4593.40  4599.53

 Zero-point correction=                           0.077011 (Hartree/Particle)
 Thermal correction to Energy=                    0.082725
 Thermal correction to Enthalpy=                  0.083669
 Thermal correction to Gibbs Free Energy=         0.046117
 Sum of electronic and zero-point Energies=          -2805.145902
 Sum of electronic and thermal Energies=             -2805.140188
 Sum of electronic and thermal Enthalpies=           -2805.139244
 Sum of electronic and thermal Free Energies=        -2805.176796

                     E (Thermal)             CV                S
                      KCal/Mol        Cal/Mol-Kelvin    Cal/Mol-Kelvin
 Total                   51.911             20.948             79.036
 Electronic               0.000              0.000              0.000
 Translational            0.889              2.981             41.023
 Rotational               0.889              2.981             28.562
 Vibrational             50.133             14.987              9.450
 Vibration     1          0.624              1.883              2.473
 Vibration     2          0.664              1.758              1.711
 Vibration     3          0.702              1.646              1.338
 Vibration     4          0.744              1.528              1.068
 Vibration     5          0.814              1.348              0.779

 Optimization completed.
    -- Stationary point found.
 Normal termination of Gaussian 16 at Tue May 27 04:26:01 2025.
