 Gaussian 16, Revision C.01,
 Gaussian 16:  AS64L-G16RevC.01  3-Jul-2019

 ----------------------------------------------------------------------
 # opt=(calcfc,tight) freq 6-311+g(d,p) scrf=(smd,solvent=thf) nosymm s
 cf=(qc,fermi,xqc) geom=connectivity int=ultrafine m062x
 ----------------------------------------------------------------------

 --------------------
 4-br-ph-opt-freq-thf
 --------------------
 Symbolic Z-matrix:
 Charge =  0 Multiplicity = 2

 SCF Done:  E(UM062X) =  -2805.08946379     A.U. after   17 cycles
 SCF Done:  E(UM062X) =  -2805.09411460     A.U. after   15 cycles
 SCF Done:  E(UM062X) =  -2805.09413418     A.U. after   11 cycles
 SCF Done:  E(UM062X) =  -2805.09413426     A.U. after    8 cycles
 Optimization completed.
    -- Stationary point found.
 Normal termination of Gaussian 16 at Mon May  5 08:17:06 2025.

 ----------------------------------------------------------------------
 #N Geom=AllCheck Guess=TCheck SCRF=Check GenChk UM062X/6-311+G(d,p) Fr
 eq
 ----------------------------------------------------------------------

 Structure from the checkpoint file:  "4-br-ph-opt-freq-thf.chk"
 --------------------
 4-br-ph-opt-freq-thf
 --------------------
 Charge =  0 Multiplicity = 2

                          Input orientation:
 ---------------------------------------------------------------------
 Center     Atomic      Atomic             Coordinates (Angstroms)
 Number     Number       Type             X           Y           Z
 ---------------------------------------------------------------------
      1          6           0        6.164708    7.016842    5.141438
      2          6           0        5.108616    6.156279    5.312060
      3          1           0        5.202415    5.217947    5.846661
      4          6           0        3.880670    6.537041    4.762710
      5          1           0        3.013288    5.896738    4.867459
      6          6           0        3.794005    7.747316    4.083104
      7          6           0        4.886452    8.593849    3.929267
      8          1           0        4.790404    9.530770    3.394309
      9          6           0        6.116396    8.217476    4.477167
     10          1           0        6.982866    8.860243    4.371526
     11         35           0        2.117361    8.265421    3.337611
 ---------------------------------------------------------------------

 SCF Done:  E(UM062X) =  -2805.09413426     A.U. after    1 cycles

 Alpha  occ. eigenvalues -- -485.33901 -63.33091 -57.15840 -57.15580 -57.15576
 Alpha  occ. eigenvalues --  -10.60966 -10.57809 -10.56670 -10.56666 -10.56258
 Alpha  occ. eigenvalues --  -10.56255  -9.01807  -6.84604  -6.83568  -6.83564
 Alpha  occ. eigenvalues --   -2.87758  -2.87397  -2.87387  -2.86472  -2.86472
 Alpha  occ. eigenvalues --   -0.99440  -0.90892  -0.86800  -0.81891  -0.71405
 Alpha  occ. eigenvalues --   -0.67979  -0.58590  -0.54758  -0.53688  -0.51119
 Alpha  occ. eigenvalues --   -0.47355  -0.45073  -0.43483  -0.38759  -0.35436
 Alpha  occ. eigenvalues --   -0.32753  -0.31497  -0.30813
 Alpha virt. eigenvalues --    0.00038   0.00321   0.01008   0.01706   0.03068
 Alpha virt. eigenvalues --    0.04301   0.04994   0.05348   0.06133   0.06536
 Alpha virt. eigenvalues --    0.07907   0.08036   0.09212   0.09626   0.11153

  Beta  occ. eigenvalues -- -485.33901 -63.33091 -57.15836 -57.15583 -57.15576
  Beta  occ. eigenvalues --  -10.61005 -10.56830 -10.56586 -10.56582 -10.56265
  Beta  occ. eigenvalues --  -10.56257  -9.01806  -6.84597  -6.83575  -6.83563
  Beta  occ. eigenvalues --   -2.87755  -2.87398  -2.87383  -2.86475  -2.86475
  Beta  occ. eigenvalues --   -0.98827  -0.90203  -0.86407  -0.80683  -0.70906
  Beta  occ. eigenvalues --   -0.66956  -0.56986  -0.53961  -0.52981  -0.50626
  Beta  occ. eigenvalues --   -0.46912  -0.43907  -0.42919  -0.38133  -0.35422
  Beta  occ. eigenvalues --   -0.32797  -0.29854
  Beta virt. eigenvalues --   -0.05740  -0.00023   0.00975   0.01389   0.01697
  Beta virt. eigenvalues --    0.03141   0.04604   0.05032   0.05373   0.06285
  Beta virt. eigenvalues --    0.07271   0.07948   0.08051   0.09264   0.10185

 Mulliken charges and spin densities:
               1          2
     1  C    0.223791   0.814753
     2  C   -0.373385   0.070164
     3  H    0.214459   0.017021
     4  C   -0.367687   0.015601
     5  H    0.211034   0.003917
     6  C    0.581049  -0.029246
     7  C   -0.367917   0.015505
     8  H    0.211096   0.003916
     9  C   -0.373138   0.069796
    10  H    0.214457   0.017011
    11  Br  -0.173758   0.001562
 Sum of Mulliken charges =   0.00000   1.00000

 Dipole moment (field-independent basis, Debye):
    X=              1.1467    Y=             -0.3537    Z=              0.5110  Tot=              1.3043
 Quadrupole moment (field-independent basis, Debye-Ang):
   XX=            -44.1152   YY=            -53.7565   ZZ=            -51.2662
   XY=             11.1297   XZ=              5.9541   YZ=             -1.4191

  Exact polarizability:     132.599      -0.524     105.978      19.742     -23.502      81.030
 Approx polarizability:     128.314       1.073     106.833      17.045     -22.294      81.931

                      1                      2                      3
                      A                      A                      A
 Frequencies --    181.8289               259.9330               325.9773
 Red. masses --      6.8856                 5.3239                12.4268
 Frc consts  --      0.1341                 0.2119                 0.7780
 IR Inten    --      0.0196                 0.2057                 2.3413

                      4                      5                      6
                      A                      A                      A
 Frequencies --    401.8863               460.7621               604.2456
 Red. masses --      2.8386                 3.3267                 6.9504
 Frc consts  --      0.2701                 0.4161                 1.4952
 IR Inten    --      0.0053                34.3249                 0.1656

                      7                      8                      9
                      A                      A                      A
 Frequencies --    676.5197               679.4302               800.7868
 Red. masses --      7.1636                 4.1510                 1.3829
 Frc consts  --      1.9317                 1.1290                 0.5225
 IR Inten    --     34.3015                 0.2130               110.0245

                     10                     11                     12
                      A                      A                      A
 Frequencies --    824.6494               956.2392               982.1225
 Red. masses --      1.2455                 1.3113                 7.7023
 Frc consts  --      0.4990                 0.7064                 4.3773
 IR Inten    --      0.3744                 0.4165                28.1011

                     13                     14                     15
                      A                      A                      A
 Frequencies --    984.1710              1058.6192              1086.5765
 Red. masses --      1.3835                 2.6246                 2.8649
 Frc consts  --      0.7896                 1.7330                 1.9929
 IR Inten    --      0.0811                26.8314                25.7273

                     16                     17                     18
                      A                      A                      A
 Frequencies --   1105.4575              1177.0512              1285.7374
 Red. masses --      1.3508                 1.1261                 2.2751
 Frc consts  --      0.9726                 0.9192                 2.2159
 IR Inten    --     12.8809                 2.2102                 0.9130

                     19                     20                     21
                      A                      A                      A
 Frequencies --   1310.0390              1394.5305              1483.1857
 Red. masses --      1.9655                 3.1258                 2.2414
 Frc consts  --      1.9875                 3.5815                 2.9051
 IR Inten    --      4.9688                10.5783                38.8406

                     22                     23                     24
                      A                      A                      A
 Frequencies --   1589.1994              1655.3220              3207.8412
 Red. masses --      5.9259                 8.1379                 1.0896
 Frc consts  --      8.8179                13.1379                 6.6061
 IR Inten    --     24.6932                 0.1939                 0.1207

                     25                     26                     27
                      A                      A                      A
 Frequencies --   3210.2682              3224.4482              3229.2942
 Red. masses --      1.0889                 1.0963                 1.0953
 Frc consts  --      6.6120                 6.7158                 6.7299
 IR Inten    --      0.1750                 0.4735                 0.3431

 - Thermochemistry -
 -------------------
 Temperature   298.150 Kelvin.  Pressure   1.00000 Atm.
 Atom     1 has atomic number  6 and mass  12.00000

 Molecular mass:   154.94964 amu.
 Principal axes and moments of inertia in atomic units:
                           1         2         3
     Eigenvalues --   321.774881740.311142062.08548
           X            0.87919   0.41286  -0.23784
           Y           -0.27133   0.84416   0.46237
           Z            0.39167  -0.34197   0.85420
 This molecule is an asymmetric top.
 Rotational symmetry number  1.
 Rotational temperatures (Kelvin)      0.26918     0.04977     0.04200
 Rotational constants (GHZ):           5.60871     1.03702     0.87520
 Zero-point vibrational energy     204299.0 (Joules/Mol)
                                   48.82863 (Kcal/Mol)
 Warning -- explicit consideration of   6 degrees of freedom as
           vibrations may cause significant error
 Vibrational temperatures:    261.61   373.99   469.01   578.22   662.93
          (Kelvin)            869.37   973.36   977.55  1152.15  1186.49
                             1375.81  1413.06  1416.00  1523.12  1563.34
                             1590.51  1693.51  1849.89  1884.85  2006.42
                             2133.97  2286.50  2381.64  4615.37  4618.86
                             4639.26  4646.23

 Zero-point correction=                           0.077813 (Hartree/Particle)
 Thermal correction to Energy=                    0.083472
 Thermal correction to Enthalpy=                  0.084417
 Thermal correction to Gibbs Free Energy=         0.046373
 Sum of electronic and zero-point Energies=          -2805.016321
 Sum of electronic and thermal Energies=             -2805.010662
 Sum of electronic and thermal Enthalpies=           -2805.009718
 Sum of electronic and thermal Free Energies=        -2805.047762

                     E (Thermal)             CV                S
                      KCal/Mol        Cal/Mol-Kelvin    Cal/Mol-Kelvin
 Total                   52.380             20.934             80.071
 Electronic               0.000              0.000              1.377
 Translational            0.889              2.981             41.023
 Rotational               0.889              2.981             28.537
 Vibrational             50.602             14.972              9.133
 Vibration     1          0.630              1.864              2.310
 Vibration     2          0.668              1.746              1.662
 Vibration     3          0.710              1.624              1.280
 Vibration     4          0.768              1.466              0.956
 Vibration     5          0.819              1.337              0.764
 Vibration     6          0.963              1.023              0.442

 Optimization completed.
    -- Stationary point found.
 Normal termination of Gaussian 16 at Mon May  5 08:18:05 2025.
