 Gaussian 16, Revision C.01,
 Gaussian 16:  AS64L-G16RevC.01  3-Jul-2019

 ----------------------------------------------------------------------
 # opt=(calcfc,tight) freq 6-311+g(d,p) nosymm scf=(qc,fermi,xqc) geom=
 connectivity int=ultrafine m062x
 ----------------------------------------------------------------------

 -----------------------
 2-cf3-phboh2-opt-freq-2
 -----------------------
 Symbolic Z-matrix:
 Charge =  0 Multiplicity = 1

 SCF Done:  E(RM062X) =  -783.233253261     A.U. after   16 cycles
 SCF Done:  E(RM062X) =  -783.233253262     A.U. after    6 cycles
 Optimization completed.
    -- Stationary point found.
 Normal termination of Gaussian 16 at Mon May  5 07:45:00 2025.

 ----------------------------------------------------------------------
 #N Geom=AllCheck Guess=TCheck SCRF=Check GenChk RM062X/6-311+G(d,p) Fr
 eq
 ----------------------------------------------------------------------

 Structure from the checkpoint file:  "2-cf3-phboh2-opt-freq-2.chk"
 -----------------------
 2-cf3-phboh2-opt-freq-2
 -----------------------
 Charge =  0 Multiplicity = 1

                          Input orientation:
 ---------------------------------------------------------------------
 Center     Atomic      Atomic             Coordinates (Angstroms)
 Number     Number       Type             X           Y           Z
 ---------------------------------------------------------------------
      1          8           0        8.701270    6.357326    4.856381
      2          1           0        9.509476    6.073728    5.295619
      3          6           0        6.273597    6.999144    5.122051
      4          5           0        7.667380    6.518414    5.711195
      5          8           0        7.812005    6.192995    7.025971
      6          1           0        7.047820    6.389001    7.572164
      7          6           0        5.192561    6.107145    5.155750
      8          1           0        5.328355    5.120833    5.587463
      9          6           0        3.960580    6.463767    4.631354
     10          1           0        3.133580    5.761652    4.653607
     11          6           0        3.753992    7.739359    4.064834
     12          6           0        4.839956    8.637956    4.046712
     13          1           0        4.675502    9.622772    3.624948
     14          6           0        6.071055    8.269449    4.561472
     15          6           0        2.500794    8.197464    3.509895
     16          1           0        1.789087    7.355067    3.604431
     17          6           0        7.214557    9.249124    4.508348
     18          9           0        6.785106   10.514977    4.456148
     19          9           0        7.997291    9.141252    5.599627
     20          9           0        7.998634    9.054414    3.443500
 ---------------------------------------------------------------------

 SCF Done:  E(RM062X) =  -783.233253262     A.U. after    1 cycles

 Alpha  occ. eigenvalues --  -25.28919 -25.28704 -25.28149 -19.66303 -19.65364
 Alpha  occ. eigenvalues --  -10.81324 -10.59764 -10.59297 -10.59043 -10.58831
 Alpha  occ. eigenvalues --  -10.58520 -10.57454 -10.57360  -7.11644  -1.48065
 Alpha  occ. eigenvalues --   -1.38797  -1.38332  -1.19290  -1.15725  -1.01099
 Alpha  occ. eigenvalues --   -0.92054  -0.89740  -0.82575  -0.77940  -0.74612
 Alpha  occ. eigenvalues --   -0.71263  -0.70374  -0.69340  -0.68358  -0.65647
 Alpha  occ. eigenvalues --   -0.63678  -0.59681  -0.58810  -0.58462  -0.56908
 Alpha  occ. eigenvalues --   -0.54850  -0.54400  -0.53581  -0.52264  -0.52089
 Alpha  occ. eigenvalues --   -0.50162  -0.49385  -0.48116  -0.47621  -0.46237
 Alpha  occ. eigenvalues --   -0.43738  -0.42794  -0.41562  -0.36124  -0.35299
 Alpha  occ. eigenvalues --   -0.28435
 Alpha virt. eigenvalues --   -0.09603  -0.02362  -0.01453   0.00732   0.01069
 Alpha virt. eigenvalues --    0.01804   0.02052   0.03242   0.04319   0.04741
 Alpha virt. eigenvalues --    0.05951   0.06497   0.06677   0.07373   0.07869

 Mulliken charges:
               1
     1  O   -0.248406
     2  H    0.279601
     3  C   -1.192664
     4  B    0.388346
     5  O   -0.284175
     6  H    0.278129
     7  C    0.145272
     8  H    0.171677
     9  C   -0.152314
    10  H    0.179951
    11  C    0.012133
    12  C    0.078474
    13  H    0.215382
    14  C   -0.342421
    15  C   -0.112890
    16  H    0.125079
    17  C    0.653901
    18  F   -0.103363
    19  F   -0.066418
    20  F   -0.025294
 Sum of Mulliken charges =   0.00000

 Dipole moment (field-independent basis, Debye):
    X=              0.2461    Y=             -3.9036    Z=              2.9983  Tot=              4.9284
 Quadrupole moment (field-independent basis, Debye-Ang):
   XX=            -81.3722   YY=           -139.4642   ZZ=            -51.8706
   XY=            -15.7210   XZ=             15.4970   YZ=              4.5538

  Exact polarizability:     148.726      -4.357     107.539      22.488     -17.283      88.877
 Approx polarizability:     169.152      -3.117     137.707      21.877     -20.346     111.809

                      1                      2                      3
                      A                      A                      A
 Frequencies --     38.9059                61.7002                76.7271
 Red. masses --      8.8698                 8.8127                 6.4188
 Frc consts  --      0.0079                 0.0198                 0.0223
 IR Inten    --      0.9316                 1.5412                 2.4495

                      4                      5                      6
                      A                      A                      A
 Frequencies --    122.3817               123.4138               180.0307
 Red. masses --      5.3235                 7.9050                 7.1103
 Frc consts  --      0.0470                 0.0709                 0.1358
 IR Inten    --      0.3291                 0.1836                 4.0483

                      7                      8                      9
                      A                      A                      A
 Frequencies --    199.2494               263.3476               276.3707
 Red. masses --      6.9855                 3.6165                 3.8858
 Frc consts  --      0.1634                 0.1478                 0.1749
 IR Inten    --      7.1479                10.7397                 4.9464

                     10                     11                     12
                      A                      A                      A
 Frequencies --    317.6408               348.6535               371.3779
 Red. masses --      4.9106                 7.6922                 7.3666
 Frc consts  --      0.2919                 0.5509                 0.5986
 IR Inten    --     19.9637                 2.4381                 8.3146

                     13                     14                     15
                      A                      A                      A
 Frequencies --    430.5619               462.0037               510.4934
 Red. masses --      4.1568                 3.3945                 4.0271
 Frc consts  --      0.4540                 0.4269                 0.6183
 IR Inten    --     19.4865                10.0114                28.3679

                     16                     17                     18
                      A                      A                      A
 Frequencies --    520.5470               528.6539               550.1000
 Red. masses --      1.6056                 1.4471                 3.8272
 Frc consts  --      0.2563                 0.2383                 0.6824
 IR Inten    --     99.9774                83.3784                 7.9584

                     19                     20                     21
                      A                      A                      A
 Frequencies --    574.7022               596.2818               640.6727
 Red. masses --      2.6728                 1.9530                 6.3775
 Frc consts  --      0.5201                 0.4091                 1.5423
 IR Inten    --     10.2121                23.2826                 1.0886

                     22                     23                     24
                      A                      A                      A
 Frequencies --    666.9177               686.5430               700.3473
 Red. masses --      7.2110                 5.4347                 5.9860
 Frc consts  --      1.8897                 1.5093                 1.7299
 IR Inten    --      9.9396                58.2414                50.1397

                     25                     26                     27
                      A                      A                      A
 Frequencies --    767.3609               779.2438               867.6903
 Red. masses --     11.3240                 4.9632                 1.3256
 Frc consts  --      3.9287                 1.7757                 0.5880
 IR Inten    --      7.9453                 3.2822                30.2237

                     28                     29                     30
                      A                      A                      A
 Frequencies --    938.9916               979.5539              1003.3527
 Red. masses --      5.9657                 1.4486                 1.4955
 Frc consts  --      3.0991                 0.8189                 0.8870
 IR Inten    --     12.8114                13.3299               117.6685

                     31                     32                     33
                      A                      A                      A
 Frequencies --   1017.1176              1028.7083              1066.9090
 Red. masses --      1.3732                 1.4487                 3.4700
 Frc consts  --      0.8370                 0.9033                 2.3272
 IR Inten    --      0.2155               137.1339                63.2973

                     34                     35                     36
                      A                      A                      A
 Frequencies --   1129.0077              1149.3971              1165.3572
 Red. masses --      1.7223                 1.9275                 1.4839
 Frc consts  --      1.2935                 1.5003                 1.1874
 IR Inten    --     14.3313                63.0288                39.0329

                     37                     38                     39
                      A                      A                      A
 Frequencies --   1205.5234              1226.0058              1251.6232
 Red. masses --      7.7081                 5.4830                 2.4678
 Frc consts  --      6.6001                 4.8557                 2.2778
 IR Inten    --    206.5663               140.5416               386.9874

                     40                     41                     42
                      A                      A                      A
 Frequencies --   1291.1831              1334.0650              1348.6210
 Red. masses --      2.2124                 3.8017                 4.8498
 Frc consts  --      2.1732                 3.9865                 5.1970
 IR Inten    --     58.3334                 3.6597               347.3919

                     43                     44                     45
                      A                      A                      A
 Frequencies --   1384.4532              1452.4552              1459.0000
 Red. masses --      4.5582                 4.6953                 6.5427
 Frc consts  --      5.1475                 5.8360                 8.2057
 IR Inten    --    338.7419               102.7340               291.2886

                     46                     47                     48
                      A                      A                      A
 Frequencies --   1528.3548              1604.2726              1670.9538
 Red. masses --      2.9946                 7.7579                 6.7443
 Frc consts  --      4.1213                11.7638                11.0947
 IR Inten    --    105.2636                13.2710                68.6140

                     49                     50                     51
                      A                      A                      A
 Frequencies --   2984.4479              3190.6868              3208.5188
 Red. masses --      1.0824                 1.0886                 1.0957
 Frc consts  --      5.6800                 6.5298                 6.6457
 IR Inten    --     83.3000                 2.2327                 3.2802

                     52                     53                     54
                      A                      A                      A
 Frequencies --   3225.3995              3895.3027              3935.9418
 Red. masses --      1.0928                 1.0651                 1.0665
 Frc consts  --      6.6981                 9.5223                 9.7347
 IR Inten    --      3.4806               126.8260                85.7032

 - Thermochemistry -
 -------------------
 Temperature   298.150 Kelvin.  Pressure   1.00000 Atm.
 Atom     1 has atomic number  8 and mass  15.99491

 Molecular mass:   202.04129 amu.
 Principal axes and moments of inertia in atomic units:
                           1         2         3
     Eigenvalues --  2000.063312862.431844264.33961
           X            0.96156   0.10848  -0.25226
           Y           -0.00090   0.91990   0.39215
           Z            0.27460  -0.37685   0.88464
 This molecule is an asymmetric top.
 Rotational symmetry number  1.
 Warning -- assumption of classical behavior for rotation
           may cause significant error
 Rotational temperatures (Kelvin)      0.04331     0.03026     0.02031
 Rotational constants (GHZ):           0.90234     0.63049     0.42322
 Zero-point vibrational energy     348933.5 (Joules/Mol)
                                   83.39710 (Kcal/Mol)
 Warning -- explicit consideration of  20 degrees of freedom as
           vibrations may cause significant error
 Vibrational temperatures:     55.98    88.77   110.39   176.08   177.56
          (Kelvin)            259.02   286.68   378.90   397.64   457.01
                              501.63   534.33   619.48   664.72   734.49
                              748.95   760.62   791.47   826.87   857.92
                              921.79   959.55   987.78  1007.64  1104.06
                             1121.16  1248.41  1351.00  1409.36  1443.60
                             1463.41  1480.08  1535.04  1624.39  1653.73
                             1676.69  1734.48  1763.95  1800.81  1857.72
                             1919.42  1940.36  1991.92  2089.76  2099.18
                             2198.96  2308.19  2404.13  4293.95  4590.69
                             4616.34  4640.63  5604.47  5662.94

 Zero-point correction=                           0.132902 (Hartree/Particle)
 Thermal correction to Energy=                    0.145546
 Thermal correction to Enthalpy=                  0.146490
 Thermal correction to Gibbs Free Energy=         0.093132
 Sum of electronic and zero-point Energies=           -783.100352
 Sum of electronic and thermal Energies=              -783.087707
 Sum of electronic and thermal Enthalpies=            -783.086763
 Sum of electronic and thermal Free Energies=         -783.140121

                     E (Thermal)             CV                S
                      KCal/Mol        Cal/Mol-Kelvin    Cal/Mol-Kelvin
 Total                   91.331             47.120            112.302
 Electronic               0.000              0.000              0.000
 Translational            0.889              2.981             41.814
 Rotational               0.889              2.981             31.568
 Vibrational             89.554             41.159             38.919
 Vibration     1          0.594              1.981              5.314
 Vibration     2          0.597              1.973              4.402
 Vibration     3          0.599              1.965              3.973
 Vibration     4          0.610              1.930              3.062
 Vibration     5          0.610              1.929              3.046
 Vibration     6          0.629              1.867              2.328
 Vibration     7          0.637              1.841              2.140
 Vibration     8          0.670              1.740              1.639
 Vibration     9          0.678              1.717              1.556
 Vibration    10          0.704              1.640              1.322
 Vibration    11          0.726              1.578              1.172
 Vibration    12          0.743              1.531              1.074
 Vibration    13          0.792              1.404              0.857
 Vibration    14          0.820              1.334              0.760
 Vibration    15          0.866              1.227              0.632
 Vibration    16          0.876              1.204              0.609
 Vibration    17          0.884              1.187              0.590
 Vibration    18          0.905              1.139              0.544
 Vibration    19          0.931              1.086              0.495
 Vibration    20          0.954              1.040              0.456

 Optimization completed.
    -- Stationary point found.
 Normal termination of Gaussian 16 at Mon May  5 07:47:41 2025.
