 Gaussian 16, Revision C.01,
 Gaussian 16:  AS64L-G16RevC.01  3-Jul-2019

 ----------------------------------------------------------------------
 # opt=(calcfc,tight) freq 6-311+g(d,p) scrf=(smd,solvent=thf) nosymm s
 cf=(qc,fermi,xqc) geom=connectivity int=ultrafine m062x
 ----------------------------------------------------------------------

 --------------------------
 4-OH-ph-anion-opt-freq-thf
 --------------------------
 Symbolic Z-matrix:
 Charge = -1 Multiplicity = 1

 SCF Done:  E(RM062X) =  -306.856453338     A.U. after   16 cycles
 SCF Done:  E(RM062X) =  -306.869602418     A.U. after   14 cycles
 SCF Done:  E(RM062X) =  -306.869875299     A.U. after   13 cycles
 SCF Done:  E(RM062X) =  -306.869876745     A.U. after    9 cycles
 SCF Done:  E(RM062X) =  -306.869876759     A.U. after    7 cycles
 SCF Done:  E(RM062X) =  -306.869876759     A.U. after    6 cycles
 Optimization completed.
    -- Stationary point found.
 Normal termination of Gaussian 16 at Tue May 27 08:00:02 2025.

 ----------------------------------------------------------------------
 #N Geom=AllCheck Guess=TCheck SCRF=Check GenChk RM062X/6-311+G(d,p) Fr
 eq
 ----------------------------------------------------------------------

 Structure from the checkpoint file:  "4-OH-ph-anion-opt-freq-thf.chk"
 --------------------------
 4-OH-ph-anion-opt-freq-thf
 --------------------------
 Charge = -1 Multiplicity = 1

                          Input orientation:
 ---------------------------------------------------------------------
 Center     Atomic      Atomic             Coordinates (Angstroms)
 Number     Number       Type             X           Y           Z
 ---------------------------------------------------------------------
      1          6           0        6.310843    6.862261    5.218703
      2          6           0        5.157776    6.097987    5.515300
      3          1           0        5.203007    5.346990    6.306018
      4          6           0        3.921710    6.218962    4.867739
      5          1           0        3.070804    5.600720    5.141232
      6          6           0        3.776724    7.151724    3.847303
      7          6           0        4.863674    7.943969    3.495317
      8          1           0        4.757756    8.677503    2.697184
      9          6           0        6.080949    7.785245    4.174360
     10          1           0        6.890914    8.439157    3.846616
     11          8           0        2.554487    7.252854    3.224171
     12          1           0        2.609327    7.932393    2.543575
 ---------------------------------------------------------------------

 SCF Done:  E(RM062X) =  -306.869876759     A.U. after    1 cycles

 Alpha  occ. eigenvalues --  -19.62354 -10.56417 -10.50166 -10.49827 -10.49220
 Alpha  occ. eigenvalues --  -10.49149 -10.44399  -1.15417  -0.90325  -0.79709
 Alpha  occ. eigenvalues --   -0.77244  -0.65866  -0.62889  -0.57980  -0.50648
 Alpha  occ. eigenvalues --   -0.48057  -0.46068  -0.44219  -0.43934  -0.41664
 Alpha  occ. eigenvalues --   -0.36441  -0.33924  -0.26766  -0.23205  -0.19547
 Alpha virt. eigenvalues --    0.03443   0.05121   0.05309   0.05418   0.07492
 Alpha virt. eigenvalues --    0.07533   0.08476   0.09164   0.10617   0.11647
 Alpha virt. eigenvalues --    0.11779   0.12115   0.12709   0.16299   0.16669

 Mulliken charges:
               1
     1  C   -1.145220
     2  C   -0.041851
     3  H    0.148942
     4  C    0.059826
     5  H    0.162525
     6  C   -0.332194
     7  C   -0.038234
     8  H    0.155796
     9  C   -0.052432
    10  H    0.148229
    11  O   -0.339824
    12  H    0.274436
 Sum of Mulliken charges =  -1.00000

 Dipole moment (field-independent basis, Debye):
    X=            -29.6628    Y=            -31.7387    Z=            -26.0579  Tot=             50.6581
 Quadrupole moment (field-independent basis, Debye-Ang):
   XX=           -239.9377   YY=           -253.5183   ZZ=           -184.2600
   XY=           -198.1050   XZ=           -161.8083   YZ=           -178.9157

  Exact polarizability:     137.424       7.419     102.097      19.705     -26.610     108.970
 Approx polarizability:     120.251       8.410      94.605      13.607     -24.000      98.201

                      1                      2                      3
                      A                      A                      A
 Frequencies --    235.5406               285.4455               382.9671
 Red. masses --      5.2965                 1.1479                 2.6488
 Frc consts  --      0.1731                 0.0551                 0.2289
 IR Inten    --      7.1007               164.0737                 1.1869

                      4                      5                      6
                      A                      A                      A
 Frequencies --    404.3824               512.7922               529.1636
 Red. masses --      4.1073                 2.8633                 8.1450
 Frc consts  --      0.3957                 0.4436                 1.3438
 IR Inten    --     15.8378                40.9569                 0.2053

                      7                      8                      9
                      A                      A                      A
 Frequencies --    645.2477               710.1567               813.2689
 Red. masses --      7.1295                 3.2611                 1.6598
 Frc consts  --      1.7489                 0.9690                 0.6468
 IR Inten    --      0.1714                 1.6607                64.6248

                     10                     11                     12
                      A                      A                      A
 Frequencies --    824.7644               842.4128               952.6845
 Red. masses --      6.3702                 1.2698                 1.2818
 Frc consts  --      2.5531                 0.5309                 0.6854
 IR Inten    --     40.9790                 1.4770                 3.3616

                     13                     14                     15
                      A                      A                      A
 Frequencies --    987.8779               989.4303              1044.4925
 Red. masses --      1.4585                 6.4325                 2.1404
 Frc consts  --      0.8386                 3.7102                 1.3758
 IR Inten    --      0.0629                 0.1107                18.6071

                     16                     17                     18
                      A                      A                      A
 Frequencies --   1088.3582              1183.3640              1195.7634
 Red. masses --      1.5424                 1.7094                 1.1884
 Frc consts  --      1.0764                 1.4104                 1.0011
 IR Inten    --      8.1591               192.3409                15.0235

                     19                     20                     21
                      A                      A                      A
 Frequencies --   1258.8138              1282.0749              1348.8967
 Red. masses --      2.9831                 3.0044                 1.3254
 Frc consts  --      2.7851                 2.9096                 1.4209
 IR Inten    --    131.3422               114.0250                23.0621

                     22                     23                     24
                      A                      A                      A
 Frequencies --   1414.3801              1496.3995              1622.1385
 Red. masses --      2.2666                 2.2669                 5.9593
 Frc consts  --      2.6715                 2.9907                 9.2390
 IR Inten    --     26.0607                28.3726               151.0171

                     25                     26                     27
                      A                      A                      A
 Frequencies --   1635.5334              3099.8484              3105.1726
 Red. masses --      5.5494                 1.0866                 1.0859
 Frc consts  --      8.7461                 6.1519                 6.1687
 IR Inten    --     35.0324                78.8764                60.5568

                     28                     29                     30
                      A                      A                      A
 Frequencies --   3151.3255              3180.4615              3848.1126
 Red. masses --      1.0924                 1.0922                 1.0662
 Frc consts  --      6.3918                 6.5094                 9.3018
 IR Inten    --     54.6923                36.1925               130.5304

 - Thermochemistry -
 -------------------
 Temperature   298.150 Kelvin.  Pressure   1.00000 Atm.
 Atom     1 has atomic number  6 and mass  12.00000

 Molecular mass:    93.03404 amu.
 Principal axes and moments of inertia in atomic units:
                           1         2         3
     Eigenvalues --   309.77639 678.18516 987.96130
           X            0.87376   0.39494  -0.28383
           Y           -0.10200   0.71941   0.68706
           Z            0.47554  -0.57137   0.66888
 This molecule is an asymmetric top.
 Rotational symmetry number  1.
 Rotational temperatures (Kelvin)      0.27960     0.12771     0.08767
 Rotational constants (GHZ):           5.82595     2.66113     1.82673
 Zero-point vibrational energy     239679.4 (Joules/Mol)
                                   57.28476 (Kcal/Mol)
 Warning -- explicit consideration of   6 degrees of freedom as
           vibrations may cause significant error
 Vibrational temperatures:    338.89   410.69   551.00   581.82   737.79
          (Kelvin)            761.35   928.37  1021.76  1170.11  1186.65
                             1212.04  1370.70  1421.34  1423.57  1502.79
                             1565.90  1702.60  1720.44  1811.15  1844.62
                             1940.76  2034.98  2152.99  2333.90  2353.17
                             4459.99  4467.65  4534.05  4575.97  5536.58

 Zero-point correction=                           0.091289 (Hartree/Particle)
 Thermal correction to Energy=                    0.096841
 Thermal correction to Enthalpy=                  0.097785
 Thermal correction to Gibbs Free Energy=         0.062265
 Sum of electronic and zero-point Energies=           -306.778588
 Sum of electronic and thermal Energies=              -306.773036
 Sum of electronic and thermal Enthalpies=            -306.772092
 Sum of electronic and thermal Free Energies=         -306.807612

                     E (Thermal)             CV                S
                      KCal/Mol        Cal/Mol-Kelvin    Cal/Mol-Kelvin
 Total                   60.769             21.374             74.759
 Electronic               0.000              0.000              0.000
 Translational            0.889              2.981             39.503
 Rotational               0.889              2.981             26.831
 Vibrational             58.991             15.413              8.425
 Vibration     1          0.655              1.786              1.836
 Vibration     2          0.683              1.701              1.501
 Vibration     3          0.752              1.507              1.027
 Vibration     4          0.770              1.461              0.947
 Vibration     5          0.868              1.222              0.627
 Vibration     6          0.884              1.185              0.589

 Optimization completed.
    -- Stationary point found.
 Normal termination of Gaussian 16 at Tue May 27 08:00:37 2025.
