 Gaussian 16, Revision C.01,
 Gaussian 16:  AS64L-G16RevC.01  3-Jul-2019

 ----------------------------------------------------------------------
 # opt=(calcfc,tight) freq 6-311+g(d,p) scrf=(smd,solvent=thf) nosymm s
 cf=(qc,fermi,xqc) geom=connectivity int=ultrafine m062x
 ----------------------------------------------------------------------

 -------------------------
 2-OMe-phboh2-opt-freq-thf
 -------------------------
 Symbolic Z-matrix:
 Charge =  0 Multiplicity = 1

 SCF Done:  E(RM062X) =  -522.748864283     A.U. after   14 cycles
 SCF Done:  E(RM062X) =  -522.748979667     A.U. after   11 cycles
 SCF Done:  E(RM062X) =  -522.748980068     A.U. after   11 cycles
 SCF Done:  E(RM062X) =  -522.748980481     A.U. after    9 cycles
 SCF Done:  E(RM062X) =  -522.748980481     A.U. after    6 cycles
 Optimization completed.
    -- Stationary point found.
 Normal termination of Gaussian 16 at Wed Apr 30 05:31:48 2025.

 ----------------------------------------------------------------------
 #N Geom=AllCheck Guess=TCheck SCRF=Check GenChk RM062X/6-311+G(d,p) Fr
 eq
 ----------------------------------------------------------------------

 Structure from the checkpoint file:  "2-OMe-phboh2-opt-freq-thf.chk"
 -------------------------
 2-OMe-phboh2-opt-freq-thf
 -------------------------
 Charge =  0 Multiplicity = 1

                          Input orientation:
 ---------------------------------------------------------------------
 Center     Atomic      Atomic             Coordinates (Angstroms)
 Number     Number       Type             X           Y           Z
 ---------------------------------------------------------------------
      1          8           0        8.371269    7.799197    6.339860
      2          1           0        9.205379    7.506792    6.726008
      3          6           0        6.220392    6.968411    5.230870
      4          5           0        7.638522    6.750916    5.875042
      5          8           0        8.149528    5.490649    6.053650
      6          1           0        7.604038    4.799422    5.665188
      7          6           0        5.161302    6.147250    5.624844
      8          1           0        5.340810    5.365965    6.358542
      9          6           0        3.870996    6.313664    5.124680
     10          1           0        3.065517    5.670375    5.457618
     11          6           0        3.636274    7.318179    4.196058
     12          6           0        4.670515    8.146838    3.764195
     13          6           0        5.956914    7.971917    4.279121
     14          1           0        2.640837    7.465465    3.791923
     15          1           0        4.463106    8.914843    3.031117
     16          8           0        7.018758    8.716500    3.888934
     17          6           0        6.799949    9.753967    2.947176
     18          1           0        6.436180    9.355817    1.995266
     19          1           0        6.091725   10.494047    3.331114
     20          1           0        7.767710   10.227417    2.793518
 ---------------------------------------------------------------------

 SCF Done:  E(RM062X) =  -522.748980481     A.U. after    1 cycles

 Alpha  occ. eigenvalues --  -19.65073 -19.63261 -19.62586 -10.60797 -10.57934
 Alpha  occ. eigenvalues --  -10.54770 -10.54667 -10.54009 -10.53558 -10.52721
 Alpha  occ. eigenvalues --   -7.08288  -1.19273  -1.16260  -1.12520  -0.95834
 Alpha  occ. eigenvalues --   -0.85436  -0.84473  -0.78417  -0.69903  -0.67273
 Alpha  occ. eigenvalues --   -0.64657  -0.62233  -0.60464  -0.55929  -0.54809
 Alpha  occ. eigenvalues --   -0.54451  -0.51430  -0.50649  -0.47750  -0.46945
 Alpha  occ. eigenvalues --   -0.45271  -0.44967  -0.44516  -0.41834  -0.41410
 Alpha  occ. eigenvalues --   -0.39786  -0.39184  -0.37375  -0.31278  -0.27846
 Alpha virt. eigenvalues --    0.00246   0.00428   0.02145   0.02215   0.02450
 Alpha virt. eigenvalues --    0.03316   0.03920   0.04135   0.04860   0.06251
 Alpha virt. eigenvalues --    0.07046   0.07546   0.08136   0.08704   0.10105

 Mulliken charges:
               1
     1  O   -0.358844
     2  H    0.301361
     3  C   -0.342158
     4  B    0.447720
     5  O   -0.343342
     6  H    0.287626
     7  C   -0.197740
     8  H    0.184667
     9  C   -0.126689
    10  H    0.184641
    11  C   -0.403179
    12  C    0.393088
    13  C   -0.530814
    14  H    0.192022
    15  H    0.194666
    16  O   -0.089993
    17  C   -0.357071
    18  H    0.181816
    19  H    0.185258
    20  H    0.196965
 Sum of Mulliken charges =   0.00000

 Dipole moment (field-independent basis, Debye):
    X=             -1.2969    Y=             -0.2082    Z=             -1.8584  Tot=              2.2758
 Quadrupole moment (field-independent basis, Debye-Ang):
   XX=            -76.0405   YY=            -59.7222   ZZ=            -79.3104
   XY=             -9.9793   XZ=            -16.2761   YZ=            -22.9089

  Exact polarizability:     153.162      12.294     132.008      10.940     -31.190     114.217
 Approx polarizability:     144.144      10.374     123.891       9.320     -24.945     108.883

                      1                      2                      3
                      A                      A                      A
 Frequencies --     36.2239                92.0130               105.1654
 Red. masses --      6.1693                 3.5617                 3.8984
 Frc consts  --      0.0048                 0.0178                 0.0254
 IR Inten    --      3.0063                 9.1014                 0.4821

                      4                      5                      6
                      A                      A                      A
 Frequencies --    137.9141               215.9580               265.6930
 Red. masses --      5.4273                 3.3698                 3.5044
 Frc consts  --      0.0608                 0.0926                 0.1458
 IR Inten    --      1.1925                 1.0686                 2.9671

                      7                      8                      9
                      A                      A                      A
 Frequencies --    304.0780               328.3496               357.1061
 Red. masses --      1.3036                 4.4820                 3.7268
 Frc consts  --      0.0710                 0.2847                 0.2800
 IR Inten    --      0.9930                 3.3140                 4.6825

                     10                     11                     12
                      A                      A                      A
 Frequencies --    436.9230               502.5025               508.1807
 Red. masses --      3.2063                 1.1361                 3.9962
 Frc consts  --      0.3606                 0.1690                 0.6080
 IR Inten    --     11.8751               252.4381                17.8371

                     13                     14                     15
                      A                      A                      A
 Frequencies --    525.6564               550.3218               569.2089
 Red. masses --      3.6659                 2.0486                 1.7359
 Frc consts  --      0.5968                 0.3655                 0.3314
 IR Inten    --     73.3051                 0.2957                 8.0778

                     16                     17                     18
                      A                      A                      A
 Frequencies --    596.9297               667.8336               715.5948
 Red. masses --      5.2297                 5.5706                 4.9962
 Frc consts  --      1.0979                 1.4638                 1.5074
 IR Inten    --      1.3680                94.8283                 3.1880

                     19                     20                     21
                      A                      A                      A
 Frequencies --    764.8015               782.7236               822.3911
 Red. masses --      2.2907                 1.7949                 5.3724
 Frc consts  --      0.7894                 0.6479                 2.1408
 IR Inten    --     16.5425               115.1932                23.8385

                     22                     23                     24
                      A                      A                      A
 Frequencies --    881.5818               981.8319              1002.3831
 Red. masses --      1.4167                 1.3702                 1.6363
 Frc consts  --      0.6487                 0.7782                 0.9687
 IR Inten    --      2.8938                 6.2922               124.2444

                     25                     26                     27
                      A                      A                      A
 Frequencies --   1014.9708              1037.7078              1070.2802
 Red. masses --      1.3011                 1.4196                 5.0650
 Frc consts  --      0.7897                 0.9007                 3.4184
 IR Inten    --      1.1423               178.7071                20.2956

                     28                     29                     30
                      A                      A                      A
 Frequencies --   1078.4999              1116.1884              1155.0390
 Red. masses --      2.7294                 2.5929                 1.5256
 Frc consts  --      1.8705                 1.9033                 1.1992
 IR Inten    --     17.5124               187.3005                 8.9047

                     31                     32                     33
                      A                      A                      A
 Frequencies --   1177.8145              1183.3039              1214.6612
 Red. masses --      1.1244                 1.2784                 1.4268
 Frc consts  --      0.9190                 1.0546                 1.2403
 IR Inten    --     11.7485                 1.9945                16.8744

                     34                     35                     36
                      A                      A                      A
 Frequencies --   1296.2842              1305.5877              1317.1066
 Red. masses --      2.5411                 2.1837                 3.9430
 Frc consts  --      2.5157                 2.1931                 4.0302
 IR Inten    --    105.2433                65.5178               321.0707

                     37                     38                     39
                      A                      A                      A
 Frequencies --   1367.1391              1403.4747              1471.3429
 Red. masses --      5.5311                 4.5087                 1.6650
 Frc consts  --      6.0910                 5.2325                 2.1237
 IR Inten    --    382.4894               423.3145               215.4435

                     40                     41                     42
                      A                      A                      A
 Frequencies --   1496.4370              1501.8121              1509.2089
 Red. masses --      1.5630                 1.0418                 1.1236
 Frc consts  --      2.0621                 1.3845                 1.5078
 IR Inten    --     14.9791                16.4393                99.8168

                     43                     44                     45
                      A                      A                      A
 Frequencies --   1534.2958              1643.7423              1665.3832
 Red. masses --      2.3953                 6.2777                 6.3113
 Frc consts  --      3.3223                 9.9936                10.3133
 IR Inten    --    149.1022                64.0966               171.6693

                     46                     47                     48
                      A                      A                      A
 Frequencies --   3049.8520              3119.0372              3176.9529
 Red. masses --      1.0343                 1.1070                 1.1014
 Frc consts  --      5.6681                 6.3453                 6.5499
 IR Inten    --     51.4509                33.0377                18.8879

                     49                     50                     51
                      A                      A                      A
 Frequencies --   3178.8643              3204.3526              3223.6511
 Red. masses --      1.0899                 1.0893                 1.0963
 Frc consts  --      6.4890                 6.5900                 6.7124
 IR Inten    --      9.8925                 4.9894                10.2127

                     52                     53                     54
                      A                      A                      A
 Frequencies --   3242.4148              3847.1605              3874.9259
 Red. masses --      1.0929                 1.0649                 1.0662
 Frc consts  --      6.7694                 9.2865                 9.4320
 IR Inten    --      1.2274               163.5082               131.0244

 - Thermochemistry -
 -------------------
 Temperature   298.150 Kelvin.  Pressure   1.00000 Atm.
 Atom     1 has atomic number  8 and mass  15.99491

 Molecular mass:   152.06447 amu.
 Principal axes and moments of inertia in atomic units:
                           1         2         3
     Eigenvalues --  1311.518241742.123832878.90411
           X            0.79863   0.54660  -0.25183
           Y           -0.31956   0.73974   0.59218
           Z            0.50997  -0.39246   0.76544
 This molecule is an asymmetric top.
 Rotational symmetry number  1.
 Warning -- assumption of classical behavior for rotation
           may cause significant error
 Rotational temperatures (Kelvin)      0.06604     0.04972     0.03009
 Rotational constants (GHZ):           1.37607     1.03594     0.62688
 Zero-point vibrational energy     416473.0 (Joules/Mol)
                                   99.53945 (Kcal/Mol)
 Warning -- explicit consideration of  16 degrees of freedom as
           vibrations may cause significant error
 Vibrational temperatures:     52.12   132.39   151.31   198.43   310.72
          (Kelvin)            382.27   437.50   472.42   513.80   628.63
                              722.99   731.16   756.30   791.79   818.96
                              858.85   960.86  1029.58  1100.38  1126.16
                             1183.24  1268.40  1412.64  1442.21  1460.32
                             1493.03  1539.89  1551.72  1605.95  1661.84
                             1694.61  1702.51  1747.63  1865.06  1878.45
                             1895.02  1967.01  2019.29  2116.93  2153.04
                             2160.77  2171.42  2207.51  2364.98  2396.12
                             4388.06  4487.60  4570.93  4573.68  4610.35
                             4638.11  4665.11  5535.21  5575.15

 Zero-point correction=                           0.158626 (Hartree/Particle)
 Thermal correction to Energy=                    0.168975
 Thermal correction to Enthalpy=                  0.169919
 Thermal correction to Gibbs Free Energy=         0.122170
 Sum of electronic and zero-point Energies=           -522.590354
 Sum of electronic and thermal Energies=              -522.580006
 Sum of electronic and thermal Enthalpies=            -522.579061
 Sum of electronic and thermal Free Energies=         -522.626810

                     E (Thermal)             CV                S
                      KCal/Mol        Cal/Mol-Kelvin    Cal/Mol-Kelvin
 Total                  106.033             39.041            100.495
 Electronic               0.000              0.000              0.000
 Translational            0.889              2.981             40.967
 Rotational               0.889              2.981             30.265
 Vibrational            104.256             33.079             29.263
 Vibration     1          0.594              1.982              5.456
 Vibration     2          0.602              1.955              3.617
 Vibration     3          0.605              1.945              3.356
 Vibration     4          0.614              1.915              2.833
 Vibration     5          0.645              1.817              1.993
 Vibration     6          0.672              1.736              1.624
 Vibration     7          0.695              1.666              1.394
 Vibration     8          0.712              1.619              1.268
 Vibration     9          0.732              1.561              1.135
 Vibration    10          0.797              1.390              0.836
 Vibration    11          0.858              1.244              0.652
 Vibration    12          0.863              1.232              0.638
 Vibration    13          0.881              1.193              0.597
 Vibration    14          0.906              1.139              0.544
 Vibration    15          0.925              1.098              0.506
 Vibration    16          0.955              1.038              0.455

 Optimization completed.
    -- Stationary point found.
 Normal termination of Gaussian 16 at Wed Apr 30 05:33:55 2025.
