 Gaussian 16, Revision C.01,
 Gaussian 16:  AS64L-G16RevC.01  3-Jul-2019

 ----------------------------------------------------------------------
 # opt=(calcfc,tight) freq 6-311+g(d,p) scrf=(smd,solvent=thf) nosymm s
 cf=(qc,fermi,xqc) geom=connectivity int=ultrafine m062x
 ----------------------------------------------------------------------

 ---------------------
 2-OMe-ph-opt-freq-thf
 ---------------------
 Symbolic Z-matrix:
 Charge =  0 Multiplicity = 2

 SCF Done:  E(UM062X) =  -346.027501358     A.U. after   19 cycles
 SCF Done:  E(UM062X) =  -346.032255414     A.U. after   16 cycles
 SCF Done:  E(UM062X) =  -346.032283917     A.U. after   13 cycles
 SCF Done:  E(UM062X) =  -346.032284156     A.U. after   10 cycles
 SCF Done:  E(UM062X) =  -346.032284160     A.U. after    7 cycles
 Optimization completed.
    -- Stationary point found.
 Normal termination of Gaussian 16 at Fri May  9 07:55:30 2025.

 ----------------------------------------------------------------------
 #N Geom=AllCheck Guess=TCheck SCRF=Check GenChk UM062X/6-311+G(d,p) Fr
 eq
 ----------------------------------------------------------------------

 Structure from the checkpoint file:  "2-OMe-ph-opt-freq-thf.chk"
 ---------------------
 2-OMe-ph-opt-freq-thf
 ---------------------
 Charge =  0 Multiplicity = 2

                          Input orientation:
 ---------------------------------------------------------------------
 Center     Atomic      Atomic             Coordinates (Angstroms)
 Number     Number       Type             X           Y           Z
 ---------------------------------------------------------------------
      1          6           0        6.137113    6.971240    5.180311
      2          6           0        5.163799    6.132629    5.642914
      3          1           0        5.379045    5.359904    6.373246
      4          6           0        3.866640    6.308316    5.135473
      5          1           0        3.060701    5.667311    5.472507
      6          6           0        3.633847    7.308887    4.201909
      7          6           0        4.659691    8.146670    3.754593
      8          6           0        5.957569    7.983453    4.251655
      9          1           0        2.635650    7.451756    3.804320
     10          1           0        4.439671    8.916294    3.025052
     11          8           0        7.030838    8.727044    3.898696
     12          6           0        6.819223    9.762485    2.949227
     13          1           0        6.465265    9.356956    1.997101
     14          1           0        6.104720   10.500555    3.324846
     15          1           0        7.787212   10.237155    2.803128
 ---------------------------------------------------------------------

 SCF Done:  E(UM062X) =  -346.032284160     A.U. after    1 cycles

 Alpha  occ. eigenvalues --  -19.65749 -10.61512 -10.58230 -10.56850 -10.55258
 Alpha  occ. eigenvalues --  -10.54847 -10.54681 -10.54441  -1.19844  -0.97065
 Alpha  occ. eigenvalues --   -0.85847  -0.85115  -0.78961  -0.69285  -0.67873
 Alpha  occ. eigenvalues --   -0.61317  -0.56217  -0.54960  -0.54847  -0.51865
 Alpha  occ. eigenvalues --   -0.48736  -0.45840  -0.45808  -0.43011  -0.41148
 Alpha  occ. eigenvalues --   -0.39600  -0.32149  -0.31344  -0.28692
 Alpha virt. eigenvalues --    0.01406   0.01920   0.02671   0.02976   0.03610
 Alpha virt. eigenvalues --    0.04955   0.05221   0.05314   0.06419   0.07890
 Alpha virt. eigenvalues --    0.08366   0.08693   0.09692   0.10479   0.12034

  Beta  occ. eigenvalues --  -19.65736 -10.61520 -10.58230 -10.55896 -10.55277
  Beta  occ. eigenvalues --  -10.54805 -10.54699 -10.54360  -1.19744  -0.96219
  Beta  occ. eigenvalues --   -0.85417  -0.84071  -0.78533  -0.68303  -0.67127
  Beta  occ. eigenvalues --   -0.60696  -0.55756  -0.54936  -0.54056  -0.51260
  Beta  occ. eigenvalues --   -0.48287  -0.45269  -0.44845  -0.42624  -0.40366
  Beta  occ. eigenvalues --   -0.39643  -0.31308  -0.28015
  Beta virt. eigenvalues --   -0.06271   0.01911   0.02057   0.02916   0.03000
  Beta virt. eigenvalues --    0.03951   0.04994   0.05222   0.05889   0.06491
  Beta virt. eigenvalues --    0.07963   0.08462   0.08985   0.09454   0.10586

 Mulliken charges and spin densities:
               1          2
     1  C    0.406108   0.728200
     2  C   -0.526925   0.066777
     3  H    0.204638   0.020013
     4  C   -0.047219   0.023315
     5  H    0.193145   0.004080
     6  C   -0.488267  -0.030385
     7  C    0.508515  -0.002033
     8  C   -0.713913   0.190445
     9  H    0.195030   0.002577
    10  H    0.201502   0.009255
    11  O   -0.136725  -0.011520
    12  C   -0.359033   0.000235
    13  H    0.183138  -0.000382
    14  H    0.183451  -0.000386
    15  H    0.196556  -0.000192
 Sum of Mulliken charges =   0.00000   1.00000

 Dipole moment (field-independent basis, Debye):
    X=             -1.7340    Y=              1.3139    Z=             -1.6023  Tot=              2.7019
 Quadrupole moment (field-independent basis, Debye-Ang):
   XX=            -65.7380   YY=            -21.2467   ZZ=            -58.9095
   XY=             -3.3330   XZ=            -17.5325   YZ=            -14.3359

  Exact polarizability:     119.127      15.334     108.221       0.726     -30.749      94.893
 Approx polarizability:     115.909      11.601      99.512       3.554     -25.877      89.531

                      1                      2                      3
                      A                      A                      A
 Frequencies --     88.2751               218.0372               267.2107
 Red. masses --      3.1597                 2.7546                 3.1774
 Frc consts  --      0.0145                 0.0772                 0.1337
 IR Inten    --      7.4254                 0.0065                 3.9873

                      4                      5                      6
                      A                      A                      A
 Frequencies --    301.3754               421.0247               448.1284
 Red. masses --      1.2859                 3.2270                 5.4131
 Frc consts  --      0.0688                 0.3370                 0.6405
 IR Inten    --      0.0878                 8.0303                 3.6505

                      7                      8                      9
                      A                      A                      A
 Frequencies --    533.6042               554.6823               619.7832
 Red. masses --      3.4501                 5.1557                 7.0180
 Frc consts  --      0.5788                 0.9346                 1.5883
 IR Inten    --      4.9032                 6.1160                 0.0761

                     10                     11                     12
                      A                      A                      A
 Frequencies --    689.4488               759.3731               806.4874
 Red. masses --      3.8741                 1.2751                 5.0123
 Frc consts  --      1.0850                 0.4332                 1.9208
 IR Inten    --      0.4059               154.9378                38.8561

                     13                     14                     15
                      A                      A                      A
 Frequencies --    851.1720               947.2164               983.1364
 Red. masses --      1.3679                 1.3876                 6.2546
 Frc consts  --      0.5839                 0.7335                 3.5619
 IR Inten    --      6.0462                 3.9470                 1.2558

                     16                     17                     18
                      A                      A                      A
 Frequencies --   1002.4219              1052.7996              1086.8927
 Red. masses --      1.2894                 2.3271                 4.3238
 Frc consts  --      0.7634                 1.5197                 3.0095
 IR Inten    --      0.0161                18.0750                73.4554

                     19                     20                     21
                      A                      A                      A
 Frequencies --   1131.2432              1169.9364              1184.4527
 Red. masses --      1.4794                 1.1328                 1.2790
 Frc consts  --      1.1155                 0.9136                 1.0572
 IR Inten    --     22.2833                11.6747                 1.6359

                     22                     23                     24
                      A                      A                      A
 Frequencies --   1215.4581              1250.5521              1308.6444
 Red. masses --      1.3840                 1.9442                 2.3181
 Frc consts  --      1.2046                 1.7914                 2.3389
 IR Inten    --      6.8683                31.0204               183.6069

                     25                     26                     27
                      A                      A                      A
 Frequencies --   1345.1469              1467.4790              1474.5427
 Red. masses --      4.8844                 2.2201                 1.6647
 Frc consts  --      5.2072                 2.8169                 2.1325
 IR Inten    --    169.1477                10.4197               125.7720

                     28                     29                     30
                      A                      A                      A
 Frequencies --   1500.8049              1506.9354              1508.1790
 Red. masses --      1.0415                 1.7144                 1.0975
 Frc consts  --      1.3821                 2.2938                 1.4709
 IR Inten    --     16.5292               125.2741                 6.6577

                     31                     32                     33
                      A                      A                      A
 Frequencies --   1602.6158              1675.9235              3052.8077
 Red. masses --      5.2660                 7.6404                 1.0342
 Frc consts  --      7.9688                12.6438                 5.6785
 IR Inten    --     81.6572                77.9570                43.9300

                     34                     35                     36
                      A                      A                      A
 Frequencies --   3123.0504              3181.7634              3198.5059
 Red. masses --      1.1073                 1.1018                 1.0877
 Frc consts  --      6.3632                 6.5720                 6.5565
 IR Inten    --     30.5740                16.5000                 0.0207

                     37                     38                     39
                      A                      A                      A
 Frequencies --   3208.7596              3222.5252              3230.7502
 Red. masses --      1.0896                 1.0947                 1.0952
 Frc consts  --      6.6100                 6.6980                 6.7351
 IR Inten    --      2.9645                 6.9255                 0.2397

 - Thermochemistry -
 -------------------
 Temperature   298.150 Kelvin.  Pressure   1.00000 Atm.
 Atom     1 has atomic number  6 and mass  12.00000

 Molecular mass:   107.04969 amu.
 Principal axes and moments of inertia in atomic units:
                           1         2         3
     Eigenvalues --   331.830971156.377471476.68708
           X            0.60129   0.77297  -0.20240
           Y            0.67766  -0.35911   0.64173
           Z           -0.42336   0.52302   0.73974
 This molecule is an asymmetric top.
 Rotational symmetry number  1.
 Rotational temperatures (Kelvin)      0.26102     0.07490     0.05865
 Rotational constants (GHZ):           5.43874     1.56069     1.22216
 Zero-point vibrational energy     318153.7 (Joules/Mol)
                                   76.04056 (Kcal/Mol)
 Warning -- explicit consideration of   9 degrees of freedom as
           vibrations may cause significant error
 Vibrational temperatures:    127.01   313.71   384.46   433.61   605.76
          (Kelvin)            644.76   767.74   798.06   891.73   991.96
                             1092.57  1160.36  1224.65  1362.83  1414.51
                             1442.26  1514.74  1563.80  1627.61  1683.28
                             1704.16  1748.77  1799.27  1882.85  1935.37
                             2111.38  2121.54  2159.32  2168.14  2169.93
                             2305.81  2411.28  4392.31  4493.37  4577.85
                             4601.94  4616.69  4636.49  4648.33

 Zero-point correction=                           0.121178 (Hartree/Particle)
 Thermal correction to Energy=                    0.127940
 Thermal correction to Enthalpy=                  0.128884
 Thermal correction to Gibbs Free Energy=         0.089557
 Sum of electronic and zero-point Energies=           -345.911106
 Sum of electronic and thermal Energies=              -345.904344
 Sum of electronic and thermal Enthalpies=            -345.903400
 Sum of electronic and thermal Free Energies=         -345.942727

                     E (Thermal)             CV                S
                      KCal/Mol        Cal/Mol-Kelvin    Cal/Mol-Kelvin
 Total                   80.283             25.640             82.769
 Electronic               0.000              0.000              1.377
 Translational            0.889              2.981             39.921
 Rotational               0.889              2.981             27.829
 Vibrational             78.506             19.678             13.642
 Vibration     1          0.601              1.957              3.698
 Vibration     2          0.646              1.814              1.975
 Vibration     3          0.672              1.733              1.614
 Vibration     4          0.693              1.671              1.409
 Vibration     5          0.784              1.425              0.888
 Vibration     6          0.807              1.365              0.801
 Vibration     7          0.889              1.176              0.579
 Vibration     8          0.910              1.129              0.535
 Vibration     9          0.980              0.990              0.417

 Optimization completed.
    -- Stationary point found.
 Normal termination of Gaussian 16 at Fri May  9 07:57:05 2025.
