 Gaussian 16, Revision C.01,
 Gaussian 16:  AS64L-G16RevC.01  3-Jul-2019

 ----------------------------------------------------------------------
 # opt=(calcfc,tight) freq 6-311+g(d,p) nosymm scf=(qc,fermi,xqc) geom=
 connectivity int=ultrafine m062x
 ----------------------------------------------------------------------

 ---------------------
 2-OMe-phboh2-opt-freq
 ---------------------
 Symbolic Z-matrix:
 Charge =  0 Multiplicity = 1

 SCF Done:  E(RM062X) =  -522.678174202     A.U. after   15 cycles
 SCF Done:  E(RM062X) =  -522.713877545     A.U. after   14 cycles
 SCF Done:  E(RM062X) =  -522.721625136     A.U. after   15 cycles
 SCF Done:  E(RM062X) =  -522.721939450     A.U. after   14 cycles
 SCF Done:  E(RM062X) =  -522.720618353     A.U. after   15 cycles
 SCF Done:  E(RM062X) =  -522.729537100     A.U. after   15 cycles
 SCF Done:  E(RM062X) =  -522.726538447     A.U. after   16 cycles
 SCF Done:  E(RM062X) =  -522.732333951     A.U. after   15 cycles
 SCF Done:  E(RM062X) =  -522.732943224     A.U. after   13 cycles
 SCF Done:  E(RM062X) =  -522.733628600     A.U. after   14 cycles
 SCF Done:  E(RM062X) =  -522.734123704     A.U. after   10 cycles
 SCF Done:  E(RM062X) =  -522.734135746     A.U. after   11 cycles
 SCF Done:  E(RM062X) =  -522.734137717     A.U. after    9 cycles
 SCF Done:  E(RM062X) =  -522.734139555     A.U. after   10 cycles
 SCF Done:  E(RM062X) =  -522.734139884     A.U. after    9 cycles
 SCF Done:  E(RM062X) =  -522.734139985     A.U. after    9 cycles
 SCF Done:  E(RM062X) =  -522.734140027     A.U. after    8 cycles
 SCF Done:  E(RM062X) =  -522.734140041     A.U. after    8 cycles
 SCF Done:  E(RM062X) =  -522.734140043     A.U. after    7 cycles
 Optimization completed.
    -- Stationary point found.
 Normal termination of Gaussian 16 at Thu Apr 24 11:02:17 2025.

 ----------------------------------------------------------------------
 #N Geom=AllCheck Guess=TCheck SCRF=Check GenChk RM062X/6-311+G(d,p) Fr
 eq
 ----------------------------------------------------------------------

 Structure from the checkpoint file:  "2-OMe-phboh2-opt-freq.chk"
 ---------------------
 2-OMe-phboh2-opt-freq
 ---------------------
 Charge =  0 Multiplicity = 1

                          Input orientation:
 ---------------------------------------------------------------------
 Center     Atomic      Atomic             Coordinates (Angstroms)
 Number     Number       Type             X           Y           Z
 ---------------------------------------------------------------------
      1          8           0        8.395911    7.803129    6.279845
      2          1           0        9.226335    7.507547    6.664964
      3          6           0        6.220377    6.966094    5.224903
      4          5           0        7.638737    6.754604    5.868468
      5          8           0        8.123552    5.490334    6.096846
      6          1           0        7.574343    4.800146    5.719647
      7          6           0        5.161657    6.147835    5.620286
      8          1           0        5.341173    5.375722    6.363607
      9          6           0        3.871864    6.309526    5.118975
     10          1           0        3.066707    5.668361    5.454767
     11          6           0        3.637158    7.309290    4.187584
     12          6           0        4.670692    8.137929    3.755697
     13          6           0        5.955406    7.966451    4.272165
     14          1           0        2.642188    7.453878    3.782700
     15          1           0        4.463126    8.904217    3.021496
     16          8           0        7.018726    8.711462    3.884245
     17          6           0        6.802390    9.760665    2.966257
     18          1           0        6.441267    9.380442    2.005274
     19          1           0        6.089315   10.490869    3.361277
     20          1           0        7.768797   10.239131    2.825721
 ---------------------------------------------------------------------

 SCF Done:  E(RM062X) =  -522.734140043     A.U. after    1 cycles

 Alpha  occ. eigenvalues --  -19.65329 -19.63314 -19.62335 -10.60942 -10.59147
 Alpha  occ. eigenvalues --  -10.55084 -10.55057 -10.54421 -10.53923 -10.52783
 Alpha  occ. eigenvalues --   -7.08157  -1.19729  -1.16302  -1.12532  -0.96099
 Alpha  occ. eigenvalues --   -0.85892  -0.84828  -0.79115  -0.70234  -0.67822
 Alpha  occ. eigenvalues --   -0.64771  -0.62533  -0.60852  -0.56403  -0.55386
 Alpha  occ. eigenvalues --   -0.55120  -0.51960  -0.51098  -0.48233  -0.47176
 Alpha  occ. eigenvalues --   -0.45351  -0.45032  -0.44708  -0.42323  -0.41802
 Alpha  occ. eigenvalues --   -0.39686  -0.39512  -0.37654  -0.31372  -0.27958
 Alpha virt. eigenvalues --    0.00068   0.00295   0.01356   0.01891   0.02335
 Alpha virt. eigenvalues --    0.03210   0.03573   0.03793   0.04483   0.05795
 Alpha virt. eigenvalues --    0.06296   0.06964   0.08231   0.08503   0.09856

 Mulliken charges:
               1
     1  O   -0.324764
     2  H    0.279264
     3  C   -0.264833
     4  B    0.416423
     5  O   -0.309969
     6  H    0.258683
     7  C   -0.178821
     8  H    0.151285
     9  C   -0.074523
    10  H    0.153282
    11  C   -0.398349
    12  C    0.416597
    13  C   -0.567306
    14  H    0.159015
    15  H    0.156645
    16  O   -0.055375
    17  C   -0.331429
    18  H    0.161888
    19  H    0.167434
    20  H    0.184853
 Sum of Mulliken charges =   0.00000

 Dipole moment (field-independent basis, Debye):
    X=             -0.9856    Y=             -0.1186    Z=             -1.4555  Tot=              1.7619
 Quadrupole moment (field-independent basis, Debye-Ang):
   XX=            -72.8271   YY=            -60.0057   ZZ=            -76.4857
   XY=             -6.9156   XZ=            -12.6707   YZ=            -17.9331

  Exact polarizability:     119.030       9.633     101.415       9.141     -23.713      87.410
 Approx polarizability:     144.536      10.599     123.956       9.769     -25.810     108.593

                      1                      2                      3
                      A                      A                      A
 Frequencies --     42.4135                85.5417               105.1730
 Red. masses --      6.2475                 3.4950                 3.9018
 Frc consts  --      0.0066                 0.0151                 0.0254
 IR Inten    --      1.7445                 5.6651                 0.4153

                      4                      5                      6
                      A                      A                      A
 Frequencies --    140.3928               213.5768               264.7660
 Red. masses --      5.4317                 3.0454                 3.2697
 Frc consts  --      0.0631                 0.0818                 0.1350
 IR Inten    --      0.7769                 0.7025                 2.1108

                      7                      8                      9
                      A                      A                      A
 Frequencies --    292.9141               327.2759               355.6837
 Red. masses --      1.3515                 4.8553                 3.8683
 Frc consts  --      0.0683                 0.3064                 0.2883
 IR Inten    --      0.6193                 2.6937                 3.3668

                     10                     11                     12
                      A                      A                      A
 Frequencies --    434.2650               508.8553               523.7386
 Red. masses --      3.3406                 3.9420                 1.2362
 Frc consts  --      0.3712                 0.6014                 0.1998
 IR Inten    --      6.5361                 6.8001               154.8448

                     13                     14                     15
                      A                      A                      A
 Frequencies --    525.9195               552.2329               581.6272
 Red. masses --      3.0655                 2.9750                 1.3910
 Frc consts  --      0.4996                 0.5345                 0.2772
 IR Inten    --     57.7352                 2.3718                 5.3404

                     16                     17                     18
                      A                      A                      A
 Frequencies --    598.1702               677.3480               717.2623
 Red. masses --      4.9677                 4.6726                 5.0114
 Frc consts  --      1.0473                 1.2631                 1.5190
 IR Inten    --      0.8751                76.7524                 2.4302

                     19                     20                     21
                      A                      A                      A
 Frequencies --    764.4579               780.5335               824.8641
 Red. masses --      2.2462                 1.8394                 5.3748
 Frc consts  --      0.7734                 0.6603                 2.1546
 IR Inten    --      8.1783                67.9552                14.4071

                     22                     23                     24
                      A                      A                      A
 Frequencies --    878.9041               972.8995              1002.6290
 Red. masses --      1.4143                 1.3672                 1.6118
 Frc consts  --      0.6437                 0.7625                 0.9547
 IR Inten    --      1.6708                 3.0620                83.1707

                     25                     26                     27
                      A                      A                      A
 Frequencies --   1007.7062              1038.2648              1079.0417
 Red. masses --      1.3206                 1.3931                 2.6578
 Frc consts  --      0.7901                 0.8848                 1.8232
 IR Inten    --      6.9630               140.6347                 7.9512

                     28                     29                     30
                      A                      A                      A
 Frequencies --   1086.0143              1129.0635              1160.9201
 Red. masses --      4.0069                 2.8402                 1.5671
 Frc consts  --      2.7844                 2.1332                 1.2444
 IR Inten    --     11.2524               114.7987                 4.4667

                     31                     32                     33
                      A                      A                      A
 Frequencies --   1181.7027              1186.9833              1215.3189
 Red. masses --      1.2776                 1.1374                 1.4208
 Frc consts  --      1.0511                 0.9442                 1.2364
 IR Inten    --      1.5827                 8.0443                 8.2338

                     34                     35                     36
                      A                      A                      A
 Frequencies --   1300.0799              1307.3480              1326.6920
 Red. masses --      1.7973                 3.2620                 4.0692
 Frc consts  --      1.7898                 3.2849                 4.2199
 IR Inten    --     15.6435                75.3312               224.6013

                     37                     38                     39
                      A                      A                      A
 Frequencies --   1379.1152              1424.9461              1475.6317
 Red. masses --      5.1691                 4.3315                 1.4719
 Frc consts  --      5.7926                 5.1819                 1.8884
 IR Inten    --    296.4101               248.4854               116.0301

                     40                     41                     42
                      A                      A                      A
 Frequencies --   1500.5108              1507.9921              1517.0465
 Red. masses --      1.9024                 1.0444                 1.1210
 Frc consts  --      2.5237                 1.3994                 1.5200
 IR Inten    --     54.4763                12.4205                87.9217

                     43                     44                     45
                      A                      A                      A
 Frequencies --   1538.8858              1649.7083              1671.5963
 Red. masses --      2.4663                 6.3773                 6.3388
 Frc consts  --      3.4412                10.2258                10.4357
 IR Inten    --    100.7874                42.6641               112.0410

                     46                     47                     48
                      A                      A                      A
 Frequencies --   3039.6253              3103.7817              3175.0374
 Red. masses --      1.0354                 1.1059                 1.0892
 Frc consts  --      5.6361                 6.2772                 6.4691
 IR Inten    --     44.6055                28.6606                 9.9686

                     49                     50                     51
                      A                      A                      A
 Frequencies --   3176.5767              3205.0877              3226.7457
 Red. masses --      1.0996                 1.0885                 1.0956
 Frc consts  --      6.5376                 6.5883                 6.7209
 IR Inten    --     15.0944                 4.2571                10.8698

                     52                     53                     54
                      A                      A                      A
 Frequencies --   3242.7346              3900.9858              3935.5661
 Red. masses --      1.0927                 1.0650                 1.0661
 Frc consts  --      6.7700                 9.5490                 9.7290
 IR Inten    --      3.3811                91.1823                62.3475

 - Thermochemistry -
 -------------------
 Temperature   298.150 Kelvin.  Pressure   1.00000 Atm.
 Atom     1 has atomic number  8 and mass  15.99491

 Molecular mass:   152.06447 amu.
 Principal axes and moments of inertia in atomic units:
                           1         2         3
     Eigenvalues --  1309.413341728.934312881.30792
           X            0.80203   0.54104  -0.25304
           Y           -0.31468   0.74284   0.59090
           Z            0.50766  -0.39429   0.76604
 This molecule is an asymmetric top.
 Rotational symmetry number  1.
 Warning -- assumption of classical behavior for rotation
           may cause significant error
 Rotational temperatures (Kelvin)      0.06615     0.05010     0.03006
 Rotational constants (GHZ):           1.37828     1.04385     0.62636
 Zero-point vibrational energy     417868.5 (Joules/Mol)
                                   99.87296 (Kcal/Mol)
 Warning -- explicit consideration of  16 degrees of freedom as
           vibrations may cause significant error
 Vibrational temperatures:     61.02   123.08   151.32   201.99   307.29
          (Kelvin)            380.94   421.44   470.88   511.75   624.81
                              732.13   753.54   756.68   794.54   836.83
                              860.63   974.55  1031.98  1099.88  1123.01
                             1186.80  1264.55  1399.79  1442.56  1449.86
                             1493.83  1552.50  1562.53  1624.47  1670.31
                             1700.21  1707.80  1748.57  1870.53  1880.98
                             1908.81  1984.24  2050.18  2123.10  2158.90
                             2169.66  2182.69  2214.11  2373.56  2405.05
                             4373.34  4465.65  4568.17  4570.39  4611.41
                             4642.57  4665.57  5612.65  5662.40

 Zero-point correction=                           0.159158 (Hartree/Particle)
 Thermal correction to Energy=                    0.169492
 Thermal correction to Enthalpy=                  0.170436
 Thermal correction to Gibbs Free Energy=         0.122787
 Sum of electronic and zero-point Energies=           -522.574982
 Sum of electronic and thermal Energies=              -522.564648
 Sum of electronic and thermal Enthalpies=            -522.563704
 Sum of electronic and thermal Free Energies=         -522.611353

                     E (Thermal)             CV                S
                      KCal/Mol        Cal/Mol-Kelvin    Cal/Mol-Kelvin
 Total                  106.358             38.932            100.287
 Electronic               0.000              0.000              0.000
 Translational            0.889              2.981             40.967
 Rotational               0.889              2.981             30.257
 Vibrational            104.580             32.970             29.063
 Vibration     1          0.595              1.980              5.143
 Vibration     2          0.601              1.959              3.760
 Vibration     3          0.605              1.945              3.356
 Vibration     4          0.615              1.913              2.799
 Vibration     5          0.644              1.820              2.013
 Vibration     6          0.671              1.738              1.630
 Vibration     7          0.688              1.687              1.457
 Vibration     8          0.711              1.621              1.273
 Vibration     9          0.731              1.564              1.141
 Vibration    10          0.795              1.396              0.845
 Vibration    11          0.864              1.230              0.636
 Vibration    12          0.879              1.197              0.601
 Vibration    13          0.881              1.193              0.596
 Vibration    14          0.908              1.135              0.540
 Vibration    15          0.938              1.071              0.482
 Vibration    16          0.956              1.036              0.453

 Optimization completed.
    -- Stationary point found.
 Normal termination of Gaussian 16 at Thu Apr 24 11:04:14 2025.
