 Gaussian 16, Revision C.01,
 Gaussian 16:  AS64L-G16RevC.01  3-Jul-2019

 ----------------------------------------------------------------------
 # opt=(calcfc,tight) freq 6-311+g(d,p) scrf=(smd,solvent=thf) nosymm s
 cf=(qc,fermi,xqc) geom=connectivity int=ultrafine m062x
 ----------------------------------------------------------------------

 -------------------------------------
 2-6-diisopropyl-phboh2-opt-freq-2-thf
 -------------------------------------
 Symbolic Z-matrix:
 Charge =  0 Multiplicity = 1

 SCF Done:  E(RM062X) =  -644.065060573     A.U. after   14 cycles
 SCF Done:  E(RM062X) =  -644.064822144     A.U. after   14 cycles
 SCF Done:  E(RM062X) =  -644.057056804     A.U. after   12 cycles
 SCF Done:  E(RM062X) =  -644.065195546     A.U. after   11 cycles
 SCF Done:  E(RM062X) =  -644.065224082     A.U. after   12 cycles
 SCF Done:  E(RM062X) =  -644.065227024     A.U. after   10 cycles
 SCF Done:  E(RM062X) =  -644.065227495     A.U. after    9 cycles
 SCF Done:  E(RM062X) =  -644.065227726     A.U. after    8 cycles
 SCF Done:  E(RM062X) =  -644.065228020     A.U. after    9 cycles
 SCF Done:  E(RM062X) =  -644.065228632     A.U. after   10 cycles
 SCF Done:  E(RM062X) =  -644.065345248     A.U. after   12 cycles
 SCF Done:  E(RM062X) =  -644.065385929     A.U. after   11 cycles
 SCF Done:  E(RM062X) =  -644.065387263     A.U. after    8 cycles
 SCF Done:  E(RM062X) =  -644.065387641     A.U. after    8 cycles
 SCF Done:  E(RM062X) =  -644.065387739     A.U. after    8 cycles
 SCF Done:  E(RM062X) =  -644.065387753     A.U. after    7 cycles
 SCF Done:  E(RM062X) =  -644.065387755     A.U. after    7 cycles
 SCF Done:  E(RM062X) =  -644.065387755     A.U. after    5 cycles
 SCF Done:  E(RM062X) =  -644.065387755     A.U. after    5 cycles
 Optimization completed.
    -- Stationary point found.
 Normal termination of Gaussian 16 at Fri May  9 03:01:33 2025.

 ----------------------------------------------------------------------
 #N Geom=AllCheck Guess=TCheck SCRF=Check GenChk RM062X/6-311+G(d,p) Fr
 eq
 ----------------------------------------------------------------------

 Structure from the checkpoint file:  "2-6-diisopropyl-phboh2-opt-freq-2-thf.chk"
 -------------------------------------
 2-6-diisopropyl-phboh2-opt-freq-2-thf
 -------------------------------------
 Charge =  0 Multiplicity = 1

                          Input orientation:
 ---------------------------------------------------------------------
 Center     Atomic      Atomic             Coordinates (Angstroms)
 Number     Number       Type             X           Y           Z
 ---------------------------------------------------------------------
      1          8           0        8.262105    7.313437    6.842869
      2          1           0        9.095244    6.947827    7.165720
      3          6           0        6.323649    6.956911    5.227793
      4          5           0        7.694115    6.529702    5.882286
      5          8           0        8.353570    5.383469    5.522495
      6          1           0        7.889461    4.885677    4.841471
      7          6           0        5.110864    6.527914    5.795761
      8          6           0        3.905118    6.897041    5.195808
      9          1           0        2.963866    6.572976    5.628376
     10          6           0        3.899187    7.680185    4.047140
     11          6           0        5.098139    8.104639    3.485817
     12          1           0        5.083374    8.717310    2.589975
     13          6           0        6.317471    7.749894    4.066562
     14          1           0        2.957360    7.961623    3.588611
     15          6           0        7.615882    8.230327    3.437148
     16          1           0        8.450950    7.847388    4.034276
     17          6           0        5.092476    5.674816    7.054630
     18          1           0        6.128129    5.490506    7.361342
     19          6           0        7.708693    9.759498    3.452509
     20          1           0        8.669772   10.087393    3.047274
     21          1           0        6.916767   10.203455    2.842541
     22          1           0        7.613345   10.148376    4.469358
     23          6           0        7.782180    7.688193    2.013975
     24          1           0        6.992398    8.066400    1.358758
     25          1           0        8.743453    8.000088    1.596853
     26          1           0        7.740325    6.595786    1.999695
     27          6           0        4.439941    4.312381    6.799448
     28          1           0        4.944842    3.777687    5.990478
     29          1           0        4.484443    3.693569    7.699669
     30          1           0        3.388087    4.429441    6.523656
     31          6           0        4.398580    6.404283    8.209478
     32          1           0        3.346174    6.589313    7.976028
     33          1           0        4.440549    5.802288    9.121204
     34          1           0        4.876792    7.366337    8.409684
 ---------------------------------------------------------------------

 SCF Done:  E(RM062X) =  -644.065387755     A.U. after    1 cycles

 Alpha  occ. eigenvalues --  -19.63559 -19.63139 -10.54579 -10.54578 -10.54076
 Alpha  occ. eigenvalues --  -10.54074 -10.53828 -10.53276 -10.53269 -10.52257
 Alpha  occ. eigenvalues --  -10.51845 -10.51842 -10.51707 -10.51704  -7.08423
 Alpha  occ. eigenvalues --   -1.16582  -1.12868  -0.96528  -0.91257  -0.88430
 Alpha  occ. eigenvalues --   -0.82952  -0.81281  -0.76913  -0.76902  -0.71038
 Alpha  occ. eigenvalues --   -0.69145  -0.66887  -0.64502  -0.61980  -0.60900
 Alpha  occ. eigenvalues --   -0.57283  -0.55171  -0.52687  -0.50327  -0.50270
 Alpha  occ. eigenvalues --   -0.50212  -0.48352  -0.48050  -0.47023  -0.46934
 Alpha  occ. eigenvalues --   -0.45672  -0.45602  -0.44559  -0.44325  -0.43509
 Alpha  occ. eigenvalues --   -0.41917  -0.41472  -0.40403  -0.39751  -0.39097
 Alpha  occ. eigenvalues --   -0.38879  -0.38382  -0.36239  -0.36103  -0.29903
 Alpha  occ. eigenvalues --   -0.28873
 Alpha virt. eigenvalues --    0.00149   0.01580   0.02089   0.02135   0.02222
 Alpha virt. eigenvalues --    0.02628   0.03735   0.03780   0.04008   0.04637
 Alpha virt. eigenvalues --    0.05451   0.06118   0.06512   0.06626   0.06998

 Mulliken charges:
               1
     1  O   -0.276757
     2  H    0.301841
     3  C   -0.837365
     4  B    0.335199
     5  O   -0.262851
     6  H    0.300542
     7  C    0.290273
     8  C   -0.366170
     9  H    0.189233
    10  C   -0.226125
    11  C   -0.366199
    12  H    0.189204
    13  C    0.286633
    14  H    0.184359
    15  C    0.215834
    16  H    0.181079
    17  C    0.216392
    18  H    0.181201
    19  C   -0.705931
    20  H    0.178151
    21  H    0.182992
    22  H    0.181285
    23  C   -0.643853
    24  H    0.183811
    25  H    0.179979
    26  H    0.176295
    27  C   -0.646115
    28  H    0.176498
    29  H    0.180040
    30  H    0.183621
    31  C   -0.705581
    32  H    0.183306
    33  H    0.178093
    34  H    0.181084
 Sum of Mulliken charges =   0.00000

 Dipole moment (field-independent basis, Debye):
    X=              0.0990    Y=             -1.3325    Z=             -0.8839  Tot=              1.6021
 Quadrupole moment (field-independent basis, Debye-Ang):
   XX=            -85.2792   YY=           -111.1702   ZZ=            -97.9400
   XY=             -6.8908   XZ=             -5.5464   YZ=            -17.9269

  Exact polarizability:     222.273       7.375     187.706      -7.633     -32.302     212.737
 Approx polarizability:     206.617       2.013     173.475      -0.179     -23.578     192.186

                      1                      2                      3
                      A                      A                      A
 Frequencies --     19.5468                30.1421                53.0411
 Red. masses --      3.0295                 2.9946                 4.4804
 Frc consts  --      0.0007                 0.0016                 0.0074
 IR Inten    --      0.6346                 0.3787                 1.3574

                      4                      5                      6
                      A                      A                      A
 Frequencies --     62.1390               111.1606               127.6781
 Red. masses --      3.7536                 5.3299                 3.0333
 Frc consts  --      0.0085                 0.0388                 0.0291
 IR Inten    --      0.4678                 0.0087                 0.0291

                      7                      8                      9
                      A                      A                      A
 Frequencies --    142.4690               154.6768               237.2081
 Red. masses --      3.5277                 3.5688                 1.0791
 Frc consts  --      0.0422                 0.0503                 0.0358
 IR Inten    --      2.4029                 0.9680                 0.0574

                     10                     11                     12
                      A                      A                      A
 Frequencies --    240.3656               253.3248               262.8673
 Red. masses --      1.1364                 2.6414                 1.2250
 Frc consts  --      0.0387                 0.0999                 0.0499
 IR Inten    --      0.3399                 0.1090                 0.0297

                     13                     14                     15
                      A                      A                      A
 Frequencies --    269.5379               274.0323               286.0890
 Red. masses --      1.1211                 3.1827                 2.1358
 Frc consts  --      0.0480                 0.1408                 0.1030
 IR Inten    --      0.3740                 1.5335                 0.5838

                     16                     17                     18
                      A                      A                      A
 Frequencies --    320.4543               329.7370               344.0555
 Red. masses --      3.1033                 4.1082                 2.6104
 Frc consts  --      0.1878                 0.2632                 0.1821
 IR Inten    --      0.0417                 8.8281                 0.2561

                     19                     20                     21
                      A                      A                      A
 Frequencies --    447.6870               455.7553               492.2557
 Red. masses --      2.4894                 4.0482                 3.1521
 Frc consts  --      0.2940                 0.4954                 0.4500
 IR Inten    --      0.1858                20.6374                 5.7082

                     22                     23                     24
                      A                      A                      A
 Frequencies --    527.9178               529.1033               553.0668
 Red. masses --      3.0096                 1.2090                 3.9081
 Frc consts  --      0.4942                 0.1994                 0.7043
 IR Inten    --     63.7915               237.6807                 3.3716

                     25                     26                     27
                      A                      A                      A
 Frequencies --    568.6970               596.0020               656.4627
 Red. masses --      1.7825                 1.5647                 2.8377
 Frc consts  --      0.3397                 0.3275                 0.7205
 IR Inten    --      2.2915                12.2745                 6.2070

                     28                     29                     30
                      A                      A                      A
 Frequencies --    657.9878               685.7576               765.4847
 Red. masses --      4.1740                 6.3671                 5.3563
 Frc consts  --      1.0647                 1.7641                 1.8492
 IR Inten    --      0.1380               126.0253                 1.2918

                     31                     32                     33
                      A                      A                      A
 Frequencies --    780.4175               828.5899               840.3737
 Red. masses --      1.7950                 3.5417                 2.4033
 Frc consts  --      0.6441                 1.4327                 1.0000
 IR Inten    --     51.5687                 0.0059                32.7715

                     34                     35                     36
                      A                      A                      A
 Frequencies --    912.1626               931.4680               933.1851
 Red. masses --      2.4131                 1.1589                 1.1438
 Frc consts  --      1.1829                 0.5924                 0.5869
 IR Inten    --      1.5922                 0.0930                 1.7584

                     37                     38                     39
                      A                      A                      A
 Frequencies --    950.9005               965.3078               974.0380
 Red. masses --      1.3566                 2.1925                 1.4500
 Frc consts  --      0.7227                 1.2037                 0.8105
 IR Inten    --      0.0599                 9.2856                 0.4681

                     40                     41                     42
                      A                      A                      A
 Frequencies --    974.3991              1008.5342              1017.8580
 Red. masses --      1.4487                 1.7597                 1.3184
 Frc consts  --      0.8104                 1.0546                 0.8048
 IR Inten    --      0.5067               130.6684                 2.6969

                     43                     44                     45
                      A                      A                      A
 Frequencies --   1040.1890              1062.9545              1076.5147
 Red. masses --      1.3739                 1.9435                 1.4992
 Frc consts  --      0.8759                 1.2938                 1.0237
 IR Inten    --    148.3823                36.1965                19.4948

                     46                     47                     48
                      A                      A                      A
 Frequencies --   1097.5750              1139.1061              1141.8190
 Red. masses --      2.3812                 2.2774                 2.2644
 Frc consts  --      1.6901                 1.7411                 1.7394
 IR Inten    --     49.5802                 6.1121                 0.0441

                     49                     50                     51
                      A                      A                      A
 Frequencies --   1151.4209              1178.1721              1181.4222
 Red. masses --      1.5411                 2.0720                 1.2842
 Frc consts  --      1.2038                 1.6946                 1.0561
 IR Inten    --     28.6711                 1.0887                 0.0693

                     52                     53                     54
                      A                      A                      A
 Frequencies --   1201.5742              1278.2724              1278.7665
 Red. masses --      1.7725                 2.5696                 1.9596
 Frc consts  --      1.5078                 2.4738                 1.8879
 IR Inten    --      8.2516                13.7169                 7.7846

                     55                     56                     57
                      A                      A                      A
 Frequencies --   1290.8823              1329.6931              1331.6420
 Red. masses --      4.6290                 1.4251                 1.3990
 Frc consts  --      4.5448                 1.4846                 1.4617
 IR Inten    --      5.7987                27.8740                 3.7345

                     58                     59                     60
                      A                      A                      A
 Frequencies --   1343.6656              1378.0283              1391.7790
 Red. masses --      2.4995                 3.5879                 1.3965
 Frc consts  --      2.6588                 4.0143                 1.5938
 IR Inten    --    221.9997               350.4368                14.2765

                     61                     62                     63
                      A                      A                      A
 Frequencies --   1395.8658              1396.4354              1402.0790
 Red. masses --      1.2757                 1.2798                 2.6477
 Frc consts  --      1.4644                 1.4704                 3.0667
 IR Inten    --     11.1526                15.0104               273.5306

                     64                     65                     66
                      A                      A                      A
 Frequencies --   1414.2397              1415.1533              1476.8830
 Red. masses --      1.2539                 1.2856                 1.0437
 Frc consts  --      1.4776                 1.5169                 1.3413
 IR Inten    --     14.0975                50.2060                 0.1063

                     67                     68                     69
                      A                      A                      A
 Frequencies --   1477.2406              1484.0278              1485.3319
 Red. masses --      1.0440                 1.0542                 1.0546
 Frc consts  --      1.3423                 1.3679                 1.3708
 IR Inten    --      0.2064                 6.2928                 6.6651

                     70                     71                     72
                      A                      A                      A
 Frequencies --   1488.4716              1490.4974              1494.1138
 Red. masses --      1.3616                 1.2625                 1.0659
 Frc consts  --      1.7774                 1.6526                 1.4019
 IR Inten    --     13.1390                21.2488                31.5752

                     73                     74                     75
                      A                      A                      A
 Frequencies --   1495.0428              1505.3090              1511.8599
 Red. masses --      1.0510                 1.6207                 2.1877
 Frc consts  --      1.3840                 2.1637                 2.9463
 IR Inten    --     27.9494                28.3182                 4.6532

                     76                     77                     78
                      A                      A                      A
 Frequencies --   1638.4471              1661.8127              3050.5651
 Red. masses --      6.8783                 6.0907                 1.0348
 Frc consts  --     10.8791                 9.9102                 5.6734
 IR Inten    --     37.3569                35.7125                31.0396

                     79                     80                     81
                      A                      A                      A
 Frequencies --   3050.9960              3052.5555              3053.1062
 Red. masses --      1.0348                 1.0485                 1.0496
 Frc consts  --      5.6750                 5.7563                 5.7645
 IR Inten    --     37.2992                18.6577                11.0337

                     82                     83                     84
                      A                      A                      A
 Frequencies --   3054.8042              3055.2626              3123.6812
 Red. masses --      1.0690                 1.0698                 1.1031
 Frc consts  --      5.8778                 5.8836                 6.3414
 IR Inten    --     41.6798                44.0388                 2.0892

                     85                     86                     87
                      A                      A                      A
 Frequencies --   3124.3648              3126.5116              3126.9951
 Red. masses --      1.1031                 1.1033                 1.1033
 Frc consts  --      6.3442                 6.3542                 6.3562
 IR Inten    --      1.3041                37.1326                33.9398

                     88                     89                     90
                      A                      A                      A
 Frequencies --   3127.5119              3128.1981              3131.2797
 Red. masses --      1.1022                 1.1022                 1.1034
 Frc consts  --      6.3519                 6.3548                 6.3739
 IR Inten    --     64.5762                99.6595                35.3349

                     91                     92                     93
                      A                      A                      A
 Frequencies --   3131.5877              3189.2631              3196.5593
 Red. masses --      1.1033                 1.0866                 1.0911
 Frc consts  --      6.3751                 6.5115                 6.5685
 IR Inten    --     31.6046                 0.1811                14.3335

                     94                     95                     96
                      A                      A                      A
 Frequencies --   3211.7527              3833.6461              3870.8030
 Red. masses --      1.0974                 1.0649                 1.0662
 Frc consts  --      6.6696                 9.2208                 9.4124
 IR Inten    --     16.0380               157.1148               131.5939

 - Thermochemistry -
 -------------------
 Temperature   298.150 Kelvin.  Pressure   1.00000 Atm.
 Atom     1 has atomic number  8 and mass  15.99491

 Molecular mass:   206.14781 amu.
 Principal axes and moments of inertia in atomic units:
                           1         2         3
     Eigenvalues --  2197.134843943.997495017.33156
           X           -0.49487   0.86871  -0.02119
           Y           -0.50080  -0.26520   0.82393
           Z            0.71014   0.41835   0.56629
 This molecule is an asymmetric top.
 Rotational symmetry number  1.
 Warning -- assumption of classical behavior for rotation
           may cause significant error
 Rotational temperatures (Kelvin)      0.03942     0.02196     0.01726
 Rotational constants (GHZ):           0.82141     0.45759     0.35970
 Zero-point vibrational energy     773611.1 (Joules/Mol)
                                  184.89748 (Kcal/Mol)
 Warning -- explicit consideration of  26 degrees of freedom as
           vibrations may cause significant error
 Vibrational temperatures:     28.12    43.37    76.31    89.40   159.94
          (Kelvin)            183.70   204.98   222.55   341.29   345.83
                              364.48   378.21   387.80   394.27   411.62
                              461.06   474.42   495.02   644.12   655.73
                              708.25   759.56   761.26   795.74   818.23
                              857.51   944.50   946.70   986.65  1101.36
                             1122.85  1192.16  1209.11  1312.40  1340.17
                             1342.65  1368.13  1388.86  1401.42  1401.94
                             1451.06  1464.47  1496.60  1529.35  1548.86
                             1579.17  1638.92  1642.82  1656.64  1695.13
                             1699.80  1728.80  1839.15  1839.86  1857.29
                             1913.13  1915.94  1933.24  1982.68  2002.46
                             2008.34  2009.16  2017.28  2034.78  2036.09
                             2124.91  2125.42  2135.19  2137.06  2141.58
                             2144.49  2149.70  2151.03  2165.80  2175.23
                             2357.36  2390.98  4389.08  4389.70  4391.95
                             4392.74  4395.18  4395.84  4494.28  4495.26
                             4498.35  4499.05  4499.79  4500.78  4505.21
                             4505.66  4588.64  4599.14  4621.00  5515.76
                             5569.22

 Zero-point correction=                           0.294653 (Hartree/Particle)
 Thermal correction to Energy=                    0.311213
 Thermal correction to Enthalpy=                  0.312157
 Thermal correction to Gibbs Free Energy=         0.249721
 Sum of electronic and zero-point Energies=           -643.770735
 Sum of electronic and thermal Energies=              -643.754175
 Sum of electronic and thermal Enthalpies=            -643.753230
 Sum of electronic and thermal Free Energies=         -643.815666

                     E (Thermal)             CV                S
                      KCal/Mol        Cal/Mol-Kelvin    Cal/Mol-Kelvin
 Total                  195.289             62.363            131.407
 Electronic               0.000              0.000              0.000
 Translational            0.889              2.981             41.874
 Rotational               0.889              2.981             32.142
 Vibrational            193.512             56.402             57.391
 Vibration     1          0.593              1.986              6.680
 Vibration     2          0.594              1.984              5.820
 Vibration     3          0.596              1.976              4.701
 Vibration     4          0.597              1.972              4.388
 Vibration     5          0.607              1.940              3.249
 Vibration     6          0.611              1.926              2.981
 Vibration     7          0.616              1.911              2.770
 Vibration     8          0.620              1.897              2.614
 Vibration     9          0.656              1.784              1.824
 Vibration    10          0.657              1.779              1.800
 Vibration    11          0.664              1.757              1.707
 Vibration    12          0.670              1.741              1.643
 Vibration    13          0.674              1.729              1.599
 Vibration    14          0.676              1.721              1.571
 Vibration    15          0.684              1.700              1.497
 Vibration    16          0.706              1.634              1.308
 Vibration    17          0.713              1.616              1.261
 Vibration    18          0.723              1.587              1.193
 Vibration    19          0.807              1.366              0.803
 Vibration    20          0.814              1.348              0.779
 Vibration    21          0.848              1.267              0.678
 Vibration    22          0.883              1.188              0.592
 Vibration    23          0.884              1.186              0.589
 Vibration    24          0.908              1.133              0.538
 Vibration    25          0.925              1.099              0.507
 Vibration    26          0.954              1.040              0.457

 Optimization completed.
    -- Stationary point found.
 Normal termination of Gaussian 16 at Fri May  9 03:10:56 2025.
