 Gaussian 16, Revision C.01,
 Gaussian 16:  AS64L-G16RevC.01  3-Jul-2019

 ----------------------------------------------------------------------
 # opt=(calcfc,tight) freq 6-311+g(d,p) scrf=(smd,solvent=thf) nosymm s
 cf=(qc,fermi,xqc) geom=connectivity int=ultrafine m062x
 ----------------------------------------------------------------------

 ---------------------------------------
 2-6-diisopropyl-ph-anion-opt-freq-2-thf
 ---------------------------------------
 Symbolic Z-matrix:
 Charge = -1 Multiplicity = 1

 SCF Done:  E(RM062X) =  -467.459170059     A.U. after   16 cycles
 SCF Done:  E(RM062X) =  -467.471858115     A.U. after   14 cycles
 SCF Done:  E(RM062X) =  -467.472018810     A.U. after   14 cycles
 SCF Done:  E(RM062X) =  -467.441717031     A.U. after   13 cycles
 SCF Done:  E(RM062X) =  -467.463839655     A.U. after   12 cycles
 SCF Done:  E(RM062X) =  -467.468356169     A.U. after   11 cycles
 SCF Done:  E(RM062X) =  -467.471101131     A.U. after   11 cycles
 SCF Done:  E(RM062X) =  -467.472290850     A.U. after   12 cycles
 SCF Done:  E(RM062X) =  -467.472408248     A.U. after   12 cycles
 SCF Done:  E(RM062X) =  -467.472233391     A.U. after   13 cycles
 SCF Done:  E(RM062X) =  -467.472430428     A.U. after   10 cycles
 SCF Done:  E(RM062X) =  -467.472431016     A.U. after   10 cycles
 SCF Done:  E(RM062X) =  -467.472431498     A.U. after   11 cycles
 SCF Done:  E(RM062X) =  -467.472431588     A.U. after   10 cycles
 SCF Done:  E(RM062X) =  -467.472431623     A.U. after   10 cycles
 SCF Done:  E(RM062X) =  -467.472431624     A.U. after    7 cycles
 SCF Done:  E(RM062X) =  -467.472431620     A.U. after    9 cycles
 SCF Done:  E(RM062X) =  -467.472431625     A.U. after    8 cycles
 SCF Done:  E(RM062X) =  -467.472431625     A.U. after    5 cycles
 Optimization completed.
    -- Stationary point found.
 Normal termination of Gaussian 16 at Fri May 30 05:39:18 2025.

 ----------------------------------------------------------------------
 #N Geom=AllCheck Guess=TCheck SCRF=Check GenChk RM062X/6-311+G(d,p) Fr
 eq
 ----------------------------------------------------------------------

 Structure from the checkpoint file:  "2-6-diisopropyl-ph-anion-opt-freq-2-thf.chk"
 ---------------------------------------
 2-6-diisopropyl-ph-anion-opt-freq-2-thf
 ---------------------------------------
 Charge = -1 Multiplicity = 1

                          Input orientation:
 ---------------------------------------------------------------------
 Center     Atomic      Atomic             Coordinates (Angstroms)
 Number     Number       Type             X           Y           Z
 ---------------------------------------------------------------------
      1          6           0        6.388734    6.914953    5.237517
      2          6           0        5.139983    6.506784    5.764069
      3          6           0        3.919284    6.810115    5.140453
      4          1           0        2.977296    6.481038    5.575780
      5          6           0        3.898245    7.539468    3.955785
      6          6           0        5.103880    7.961568    3.400390
      7          1           0        5.085526    8.536912    2.476911
      8          6           0        6.318913    7.651363    4.028951
      9          1           0        2.955833    7.777614    3.471674
     10          6           0        7.607411    8.171337    3.394888
     11          1           0        8.424918    7.656953    3.908325
     12          6           0        5.088769    5.715561    7.069030
     13          1           0        6.128717    5.547064    7.364538
     14          6           0        7.770125    9.675894    3.641269
     15          1           0        8.722164   10.042471    3.243278
     16          1           0        6.963163   10.234883    3.155362
     17          1           0        7.736972    9.899917    4.710998
     18          6           0        7.720028    7.864906    1.898188
     19          1           0        6.969392    8.410790    1.318597
     20          1           0        8.703724    8.157774    1.517825
     21          1           0        7.584737    6.797516    1.702616
     22          6           0        4.418500    4.348140    6.895307
     23          1           0        4.912743    3.768083    6.110937
     24          1           0        4.460809    3.770637    7.824428
     25          1           0        3.364802    4.456820    6.619311
     26          6           0        4.400302    6.507537    8.186405
     27          1           0        3.350751    6.698616    7.939636
     28          1           0        4.427035    5.957949    9.132993
     29          1           0        4.890048    7.473352    8.338388
 ---------------------------------------------------------------------

 SCF Done:  E(RM062X) =  -467.472431625     A.U. after    1 cycles

 Alpha  occ. eigenvalues --  -10.50123 -10.50118 -10.49861 -10.49492 -10.49483
 Alpha  occ. eigenvalues --  -10.49479 -10.49451 -10.49372 -10.49363 -10.49026
 Alpha  occ. eigenvalues --  -10.48998 -10.44228  -0.91287  -0.87409  -0.84985
 Alpha  occ. eigenvalues --   -0.77102  -0.76786  -0.74529  -0.74513  -0.66842
 Alpha  occ. eigenvalues --   -0.63500  -0.61873  -0.56747  -0.52588  -0.50363
 Alpha  occ. eigenvalues --   -0.48040  -0.47642  -0.46944  -0.45042  -0.44582
 Alpha  occ. eigenvalues --   -0.43654  -0.42309  -0.42161  -0.42053  -0.40019
 Alpha  occ. eigenvalues --   -0.38472  -0.37572  -0.36995  -0.35839  -0.35070
 Alpha  occ. eigenvalues --   -0.34453  -0.31315  -0.24757  -0.24218  -0.19010
 Alpha virt. eigenvalues --    0.03399   0.04002   0.04660   0.05311   0.05661
 Alpha virt. eigenvalues --    0.05905   0.06316   0.06441   0.06653   0.07082
 Alpha virt. eigenvalues --    0.08238   0.08484   0.08644   0.09038   0.09276

 Mulliken charges:
               1
     1  C   -0.770907
     2  C   -0.105666
     3  C   -0.219950
     4  H    0.156780
     5  C   -0.359140
     6  C   -0.284141
     7  H    0.156073
     8  C   -0.145532
     9  H    0.160831
    10  C    0.272719
    11  H    0.173981
    12  C    0.279784
    13  H    0.172116
    14  C   -0.607252
    15  H    0.159841
    16  H    0.175773
    17  H    0.173081
    18  C   -0.650802
    19  H    0.163190
    20  H    0.164174
    21  H    0.174838
    22  C   -0.631383
    23  H    0.172794
    24  H    0.161564
    25  H    0.167320
    26  C   -0.614093
    27  H    0.171114
    28  H    0.160515
    29  H    0.172375
 Sum of Mulliken charges =  -1.00000

 Dipole moment (field-independent basis, Debye):
    X=            -30.5943    Y=            -33.2421    Z=            -25.1231  Tot=             51.6935
 Quadrupole moment (field-independent basis, Debye-Ang):
   XX=           -280.4288   YY=           -315.5295   ZZ=           -216.4265
   XY=           -211.4679   XZ=           -160.8746   YZ=           -174.5188

  Exact polarizability:     229.512       9.033     186.832      -4.305     -32.860     219.616
 Approx polarizability:     202.677       3.994     165.779       0.180     -24.402     189.845

                      1                      2                      3
                      A                      A                      A
 Frequencies --     17.6790                51.5889               126.4558
 Red. masses --      2.7192                 2.7473                 3.0985
 Frc consts  --      0.0005                 0.0043                 0.0292
 IR Inten    --      0.1033                 0.5247                 0.1612

                      4                      5                      6
                      A                      A                      A
 Frequencies --    129.8966               169.3717               239.1220
 Red. masses --      3.2244                 3.0621                 1.1130
 Frc consts  --      0.0321                 0.0518                 0.0375
 IR Inten    --     26.8917                 8.2542                 0.6250

                      7                      8                      9
                      A                      A                      A
 Frequencies --    244.5531               255.7348               265.2790
 Red. masses --      1.0882                 2.2209                 1.2983
 Frc consts  --      0.0383                 0.0856                 0.0538
 IR Inten    --      0.4343                 0.5648                 0.3980

                     10                     11                     12
                      A                      A                      A
 Frequencies --    281.1208               289.2749               304.1996
 Red. masses --      1.1855                 1.7256                 2.8499
 Frc consts  --      0.0552                 0.0851                 0.1554
 IR Inten    --      0.3290                 2.1101                 0.6589

                     13                     14                     15
                      A                      A                      A
 Frequencies --    330.9250               348.2686               445.6831
 Red. masses --      4.1097                 2.5699                 2.4279
 Frc consts  --      0.2652                 0.1837                 0.2841
 IR Inten    --     33.1025                10.0029                 0.0227

                     16                     17                     18
                      A                      A                      A
 Frequencies --    498.5027               508.7769               575.8731
 Red. masses --      3.4933                 4.0902                 3.2419
 Frc consts  --      0.5115                 0.6238                 0.6334
 IR Inten    --      0.6660                 9.7977                 0.3417

                     19                     20                     21
                      A                      A                      A
 Frequencies --    580.8991               670.0732               715.8883
 Red. masses --      2.6383                 4.0956                 4.1012
 Frc consts  --      0.5245                 1.0834                 1.2384
 IR Inten    --      1.7206                 0.2253                 0.1876

                     22                     23                     24
                      A                      A                      A
 Frequencies --    732.2090               811.7233               819.2656
 Red. masses --      1.7875                 3.4616                 2.1315
 Frc consts  --      0.5646                 1.3438                 0.8429
 IR Inten    --     30.2257                 3.4431                47.8716

                     25                     26                     27
                      A                      A                      A
 Frequencies --    905.1107               921.8891               926.5569
 Red. masses --      2.3921                 1.3474                 1.1489
 Frc consts  --      1.1546                 0.6747                 0.5811
 IR Inten    --      0.8092                 0.4438                 1.6817

                     28                     29                     30
                      A                      A                      A
 Frequencies --    928.8522               954.3310               966.1622
 Red. masses --      1.2153                 2.1386                 1.4578
 Frc consts  --      0.6178                 1.1476                 0.8018
 IR Inten    --      0.2173                 5.9773                 0.0806

                     31                     32                     33
                      A                      A                      A
 Frequencies --    967.4807               983.8058               987.3557
 Red. masses --      1.4586                 5.9298                 1.3613
 Frc consts  --      0.8044                 3.3815                 0.7819
 IR Inten    --      0.5639                 1.6634                 0.6710

                     34                     35                     36
                      A                      A                      A
 Frequencies --   1058.9732              1060.8085              1123.2546
 Red. masses --      1.6346                 1.5389                 1.5883
 Frc consts  --      1.0800                 1.0203                 1.1807
 IR Inten    --     18.8084                19.8161                 4.2667

                     37                     38                     39
                      A                      A                      A
 Frequencies --   1134.6327              1138.2496              1165.5936
 Red. masses --      2.2156                 2.3142                 1.3840
 Frc consts  --      1.6805                 1.7666                 1.1078
 IR Inten    --      4.8120                 1.7680                 4.8764

                     40                     41                     42
                      A                      A                      A
 Frequencies --   1167.4953              1187.5475              1239.8290
 Red. masses --      1.7664                 1.8161                 2.1947
 Frc consts  --      1.4186                 1.5090                 1.9877
 IR Inten    --      0.9566                 9.4582                 9.3123

                     43                     44                     45
                      A                      A                      A
 Frequencies --   1244.8651              1262.5869              1323.6772
 Red. masses --      2.1240                 3.5629                 2.1537
 Frc consts  --      1.9393                 3.3464                 2.2233
 IR Inten    --      0.6111                63.5333                 1.6544

                     46                     47                     48
                      A                      A                      A
 Frequencies --   1344.5793              1352.2130              1357.2008
 Red. masses --      1.4932                 1.3172                 1.4441
 Frc consts  --      1.5905                 1.4190                 1.5672
 IR Inten    --      1.0826                 2.4855                 0.4449

                     49                     50                     51
                      A                      A                      A
 Frequencies --   1387.9638              1388.3368              1403.3499
 Red. masses --      1.2961                 1.2961                 1.2524
 Frc consts  --      1.4711                 1.4719                 1.4532
 IR Inten    --     24.6386                 6.0068                 6.2091

                     52                     53                     54
                      A                      A                      A
 Frequencies --   1405.1658              1425.0505              1463.6406
 Red. masses --      1.2596                 2.4444                 2.0732
 Frc consts  --      1.4654                 2.9247                 2.6168
 IR Inten    --      6.1899                 3.5882                33.3166

                     55                     56                     57
                      A                      A                      A
 Frequencies --   1478.3097              1479.5530              1483.3250
 Red. masses --      1.0457                 1.0481                 1.0461
 Frc consts  --      1.3464                 1.3518                 1.3560
 IR Inten    --      0.1879                 0.7170                 4.4289

                     58                     59                     60
                      A                      A                      A
 Frequencies --   1483.5883              1491.9040              1494.2281
 Red. masses --      1.0584                 1.0566                 1.0507
 Frc consts  --      1.3725                 1.3856                 1.3822
 IR Inten    --      5.6116                12.2740                18.2547

                     61                     62                     63
                      A                      A                      A
 Frequencies --   1496.6185              1498.1856              1607.1808
 Red. masses --      1.0718                 1.0946                 6.2935
 Frc consts  --      1.4145                 1.4476                 9.5780
 IR Inten    --     14.0105                12.2580                43.5146

                     64                     65                     66
                      A                      A                      A
 Frequencies --   1613.7584              3036.3876              3037.9889
 Red. masses --      4.8798                 1.0355                 1.0350
 Frc consts  --      7.4874                 5.6248                 5.6279
 IR Inten    --      0.8322                48.8204                46.7413

                     67                     68                     69
                      A                      A                      A
 Frequencies --   3041.4360              3043.8825              3068.7439
 Red. masses --      1.0356                 1.0357                 1.0846
 Frc consts  --      5.6443                 5.6539                 6.0177
 IR Inten    --     60.9155                48.1025                 9.5439

                     70                     71                     72
                      A                      A                      A
 Frequencies --   3072.2224              3103.2943              3105.2253
 Red. masses --      1.0848                 1.1023                 1.1023
 Frc consts  --      6.0327                 6.2544                 6.2622
 IR Inten    --      6.4490                19.3818                 0.2251

                     73                     74                     75
                      A                      A                      A
 Frequencies --   3110.2201              3110.9949              3116.1450
 Red. masses --      1.1010                 1.1006                 1.1027
 Frc consts  --      6.2753                 6.2761                 6.3086
 IR Inten    --    125.0820               121.9191                32.0526

                     76                     77                     78
                      A                      A                      A
 Frequencies --   3118.0294              3119.3315              3121.3195
 Red. masses --      1.1017                 1.1024                 1.1014
 Frc consts  --      6.3108                 6.3202                 6.3224
 IR Inten    --     53.0690                37.9958                44.9228

                     79                     80                     81
                      A                      A                      A
 Frequencies --   3148.4255              3155.5275              3188.5854
 Red. masses --      1.0859                 1.0887                 1.0957
 Frc consts  --      6.3422                 6.3870                 6.5635
 IR Inten    --     27.8149                64.2774                54.9279

 - Thermochemistry -
 -------------------
 Temperature   298.150 Kelvin.  Pressure   1.00000 Atm.
 Atom     1 has atomic number  6 and mass  12.00000

 Molecular mass:   161.13303 amu.
 Principal axes and moments of inertia in atomic units:
                           1         2         3
     Eigenvalues --   952.654233738.500703957.26008
           X           -0.49599   0.82544  -0.26953
           Y           -0.49018  -0.00995   0.87157
           Z            0.71674   0.56440   0.40955
 This molecule is an asymmetric top.
 Rotational symmetry number  1.
 Warning -- assumption of classical behavior for rotation
           may cause significant error
 Rotational temperatures (Kelvin)      0.09092     0.02317     0.02189
 Rotational constants (GHZ):           1.89443     0.48274     0.45606
 Zero-point vibrational energy     672381.0 (Joules/Mol)
                                  160.70293 (Kcal/Mol)
 Warning -- explicit consideration of  19 degrees of freedom as
           vibrations may cause significant error
 Vibrational temperatures:     25.44    74.22   181.94   186.89   243.69
          (Kelvin)            344.04   351.86   367.95   381.68   404.47
                              416.20   437.68   476.13   501.08   641.24
                              717.23   732.02   828.55   835.78   964.09
                             1030.00  1053.49  1167.89  1178.74  1302.25
                             1326.39  1333.11  1336.41  1373.07  1390.09
                             1391.99  1415.48  1420.58  1523.63  1526.27
                             1616.11  1632.48  1637.69  1677.03  1679.77
                             1708.62  1783.84  1791.08  1816.58  1904.48
                             1934.55  1945.53  1952.71  1996.97  1997.51
                             2019.11  2021.72  2050.33  2105.85  2126.96
                             2128.75  2134.17  2134.55  2146.52  2149.86
                             2153.30  2155.55  2312.37  2321.84  4368.68
                             4370.99  4375.95  4379.47  4415.24  4420.24
                             4464.95  4467.73  4474.91  4476.03  4483.44
                             4486.15  4488.02  4490.88  4529.88  4540.10
                             4587.66

 Zero-point correction=                           0.256096 (Hartree/Particle)
 Thermal correction to Energy=                    0.268908
 Thermal correction to Enthalpy=                  0.269852
 Thermal correction to Gibbs Free Energy=         0.216550
 Sum of electronic and zero-point Energies=           -467.216335
 Sum of electronic and thermal Energies=              -467.203523
 Sum of electronic and thermal Enthalpies=            -467.202579
 Sum of electronic and thermal Free Energies=         -467.255882

                     E (Thermal)             CV                S
                      KCal/Mol        Cal/Mol-Kelvin    Cal/Mol-Kelvin
 Total                  168.742             49.049            112.185
 Electronic               0.000              0.000              0.000
 Translational            0.889              2.981             41.140
 Rotational               0.889              2.981             31.022
 Vibrational            166.965             43.088             40.022
 Vibration     1          0.593              1.986              6.879
 Vibration     2          0.596              1.977              4.756
 Vibration     3          0.611              1.927              2.999
 Vibration     4          0.612              1.923              2.948
 Vibration     5          0.625              1.880              2.442
 Vibration     6          0.657              1.781              1.809
 Vibration     7          0.660              1.772              1.770
 Vibration     8          0.666              1.753              1.691
 Vibration     9          0.671              1.737              1.627
 Vibration    10          0.681              1.709              1.527
 Vibration    11          0.686              1.694              1.478
 Vibration    12          0.695              1.666              1.394
 Vibration    13          0.713              1.614              1.256
 Vibration    14          0.726              1.579              1.174
 Vibration    15          0.805              1.370              0.809
 Vibration    16          0.854              1.253              0.662
 Vibration    17          0.864              1.231              0.637
 Vibration    18          0.932              1.083              0.493
 Vibration    19          0.938              1.073              0.484

                           ! Non-Optimized Parameters !
 Normal termination of Gaussian 16 at Fri May 30 05:44:12 2025.
