 Gaussian 16, Revision C.01,
 Gaussian 16:  AS64L-G16RevC.01  3-Jul-2019

 ----------------------------------------------------------------------
 # opt=(calcfc,tight) freq 6-311+g(d,p) nosymm scf=(qc,fermi,xqc) geom=
 connectivity int=ultrafine m062x
 ----------------------------------------------------------------------

 ---------------------------------
 2-6-diisopropyl-phboh2-opt-freq-2
 ---------------------------------
 Symbolic Z-matrix:
 Charge =  0 Multiplicity = 1

 SCF Done:  E(RM062X) =  -644.049376264     A.U. after   14 cycles
 SCF Done:  E(RM062X) =  -644.049376264     A.U. after    5 cycles
 Optimization completed.
    -- Stationary point found.
 Normal termination of Gaussian 16 at Tue May  6 08:42:10 2025.

 ----------------------------------------------------------------------
 #N Geom=AllCheck Guess=TCheck SCRF=Check GenChk RM062X/6-311+G(d,p) Fr
 eq
 ----------------------------------------------------------------------

 Structure from the checkpoint file:  "2-6-diisopropyl-phboh2-opt-freq-2.chk"
 ---------------------------------
 2-6-diisopropyl-phboh2-opt-freq-2
 ---------------------------------
 Charge =  0 Multiplicity = 1

                          Input orientation:
 ---------------------------------------------------------------------
 Center     Atomic      Atomic             Coordinates (Angstroms)
 Number     Number       Type             X           Y           Z
 ---------------------------------------------------------------------
      1          8           0        8.349359    7.497009    6.581479
      2          1           0        9.179385    7.157256    6.931821
      3          6           0        6.311443    6.906488    5.159627
      4          5           0        7.689904    6.562160    5.842534
      5          8           0        8.275185    5.327303    5.720733
      6          1           0        7.758716    4.727156    5.178123
      7          6           0        5.110682    6.495961    5.758224
      8          6           0        3.898409    6.775055    5.122973
      9          1           0        2.963747    6.462340    5.576800
     10          6           0        3.878037    7.452475    3.912943
     11          6           0        5.067900    7.864821    3.321939
     12          1           0        5.034831    8.396117    2.377842
     13          6           0        6.290813    7.598821    3.934087
     14          1           0        2.932442    7.662995    3.426299
     15          6           0        7.591650    8.104185    3.329619
     16          1           0        8.400132    7.452250    3.683082
     17          6           0        5.107079    5.763549    7.091011
     18          1           0        6.143122    5.670953    7.435034
     19          6           0        7.882614    9.523047    3.838132
     20          1           0        8.831711    9.889191    3.437480
     21          1           0        7.089123   10.203652    3.516251
     22          1           0        7.932421    9.541792    4.928004
     23          6           0        7.614496    8.062734    1.799990
     24          1           0        6.933318    8.802081    1.371566
     25          1           0        8.616987    8.297823    1.435476
     26          1           0        7.331370    7.078325    1.421053
     27          6           0        4.539680    4.346606    6.950292
     28          1           0        5.095287    3.769351    6.207353
     29          1           0        4.587058    3.816071    7.904449
     30          1           0        3.493812    4.377821    6.633637
     31          6           0        4.345084    6.554621    8.160045
     32          1           0        3.288923    6.650466    7.895143
     33          1           0        4.403716    6.046831    9.125941
     34          1           0        4.758863    7.558824    8.269707
 ---------------------------------------------------------------------

 SCF Done:  E(RM062X) =  -644.049376264     A.U. after    1 cycles

 Alpha  occ. eigenvalues --  -19.63962 -19.63442 -10.54745 -10.54699 -10.54670
 Alpha  occ. eigenvalues --  -10.54458 -10.53998 -10.53504 -10.53423 -10.52814
 Alpha  occ. eigenvalues --  -10.52446 -10.52425 -10.52305 -10.51816  -7.08667
 Alpha  occ. eigenvalues --   -1.17069  -1.13310  -0.96690  -0.91665  -0.88851
 Alpha  occ. eigenvalues --   -0.83172  -0.81606  -0.77720  -0.77292  -0.71378
 Alpha  occ. eigenvalues --   -0.69396  -0.67337  -0.64954  -0.62436  -0.61324
 Alpha  occ. eigenvalues --   -0.57679  -0.55461  -0.53263  -0.51025  -0.50889
 Alpha  occ. eigenvalues --   -0.50481  -0.49369  -0.48329  -0.47343  -0.47190
 Alpha  occ. eigenvalues --   -0.46059  -0.45742  -0.45267  -0.44887  -0.43612
 Alpha  occ. eigenvalues --   -0.42299  -0.41920  -0.40682  -0.40312  -0.39665
 Alpha  occ. eigenvalues --   -0.39228  -0.38931  -0.36735  -0.36406  -0.29780
 Alpha  occ. eigenvalues --   -0.28948
 Alpha virt. eigenvalues --   -0.00374   0.01170   0.01611   0.01703   0.02170
 Alpha virt. eigenvalues --    0.02303   0.03120   0.03256   0.03740   0.04306
 Alpha virt. eigenvalues --    0.05303   0.05515   0.05865   0.06572   0.06739

 Mulliken charges:
               1
     1  O   -0.252285
     2  H    0.282317
     3  C   -0.797261
     4  B    0.269104
     5  O   -0.226370
     6  H    0.277197
     7  C    0.177952
     8  C   -0.362236
     9  H    0.154373
    10  C   -0.245310
    11  C   -0.232410
    12  H    0.150242
    13  C    0.392425
    14  H    0.153324
    15  C    0.171748
    16  H    0.179176
    17  C    0.198051
    18  H    0.174016
    19  C   -0.722106
    20  H    0.161818
    21  H    0.181448
    22  H    0.193586
    23  C   -0.589690
    24  H    0.158572
    25  H    0.171766
    26  H    0.180123
    27  C   -0.537590
    28  H    0.157362
    29  H    0.168082
    30  H    0.173625
    31  C   -0.671216
    32  H    0.167789
    33  H    0.164974
    34  H    0.177401
 Sum of Mulliken charges =   0.00000

 Dipole moment (field-independent basis, Debye):
    X=              0.0250    Y=             -1.1194    Z=             -0.3253  Tot=              1.1660
 Quadrupole moment (field-independent basis, Debye-Ang):
   XX=            -87.5660   YY=           -109.2204   ZZ=            -93.1382
   XY=             -6.1017   XZ=             -1.9301   YZ=            -11.1680

  Exact polarizability:     166.477      10.993     139.558      -7.765     -25.521     165.641
 Approx polarizability:     208.084       4.233     170.323       1.576     -22.544     194.006

                      1                      2                      3
                      A                      A                      A
 Frequencies --     26.2686                39.3087                44.1263
 Red. masses --      3.2682                 3.1555                 4.2327
 Frc consts  --      0.0013                 0.0029                 0.0049
 IR Inten    --      0.3578                 0.2007                 0.6993

                      4                      5                      6
                      A                      A                      A
 Frequencies --     68.5624               116.9289               130.2731
 Red. masses --      3.3145                 5.3861                 3.0753
 Frc consts  --      0.0092                 0.0434                 0.0307
 IR Inten    --      0.4419                 0.0443                 0.0317

                      7                      8                      9
                      A                      A                      A
 Frequencies --    134.8316               154.6709               230.1776
 Red. masses --      3.8340                 3.3327                 1.1070
 Frc consts  --      0.0411                 0.0470                 0.0346
 IR Inten    --      1.5068                 0.1650                 0.1386

                     10                     11                     12
                      A                      A                      A
 Frequencies --    238.0315               251.4034               262.0651
 Red. masses --      1.1982                 2.2754                 1.2961
 Frc consts  --      0.0400                 0.0847                 0.0524
 IR Inten    --      0.0963                 0.1735                 0.3696

                     13                     14                     15
                      A                      A                      A
 Frequencies --    270.7177               278.1688               295.5962
 Red. masses --      1.8719                 1.3188                 2.3119
 Frc consts  --      0.0808                 0.0601                 0.1190
 IR Inten    --      0.7021                 0.4038                 0.1767

                     16                     17                     18
                      A                      A                      A
 Frequencies --    309.5103               330.2975               350.8394
 Red. masses --      2.9528                 3.9943                 2.5888
 Frc consts  --      0.1667                 0.2567                 0.1877
 IR Inten    --      0.2095                 6.4427                 0.3223

                     19                     20                     21
                      A                      A                      A
 Frequencies --    441.7696               454.9584               490.5843
 Red. masses --      2.6294                 3.7125                 3.3534
 Frc consts  --      0.3023                 0.4528                 0.4755
 IR Inten    --      1.8013                 9.1745                 3.0140

                     22                     23                     24
                      A                      A                      A
 Frequencies --    526.8428               548.2950               551.7869
 Red. masses --      3.4354                 1.2486                 3.3228
 Frc consts  --      0.5618                 0.2212                 0.5961
 IR Inten    --     31.7154               130.1069                10.2835

                     25                     26                     27
                      A                      A                      A
 Frequencies --    573.0483               609.6285               649.0331
 Red. masses --      2.1566                 1.3216                 3.4905
 Frc consts  --      0.4172                 0.2894                 0.8663
 IR Inten    --     14.4922                 4.6451                 2.5904

                     28                     29                     30
                      A                      A                      A
 Frequencies --    660.6540               694.8297               765.7218
 Red. masses --      3.2555                 5.3381                 5.2188
 Frc consts  --      0.8372                 1.5184                 1.8029
 IR Inten    --      2.6034               101.1014                 0.5114

                     31                     32                     33
                      A                      A                      A
 Frequencies --    775.5597               828.0965               836.0338
 Red. masses --      1.6805                 3.6291                 2.6453
 Frc consts  --      0.5956                 1.4663                 1.0893
 IR Inten    --     29.4797                 0.3784                13.3733

                     34                     35                     36
                      A                      A                      A
 Frequencies --    911.0253               930.1238               933.1727
 Red. masses --      2.4204                 1.1885                 1.1813
 Frc consts  --      1.1836                 0.6058                 0.6061
 IR Inten    --      0.6002                 0.3680                 0.3661

                     37                     38                     39
                      A                      A                      A
 Frequencies --    938.2605               963.1658               972.9647
 Red. masses --      1.3239                 2.1062                 1.4548
 Frc consts  --      0.6867                 1.1512                 0.8114
 IR Inten    --      0.1766                 5.2936                 0.3079

                     40                     41                     42
                      A                      A                      A
 Frequencies --    978.2027              1008.8333              1011.0642
 Red. masses --      1.4926                 1.6898                 1.3408
 Frc consts  --      0.8415                 1.0133                 0.8076
 IR Inten    --      2.3925                86.3562                 4.5360

                     43                     44                     45
                      A                      A                      A
 Frequencies --   1043.7300              1068.9623              1081.4148
 Red. masses --      1.4196                 1.9537                 1.5191
 Frc consts  --      0.9111                 1.3153                 1.0467
 IR Inten    --    118.3219                13.9775                11.4919

                     46                     47                     48
                      A                      A                      A
 Frequencies --   1100.7513              1140.8490              1142.7147
 Red. masses --      2.3654                 2.3207                 2.2735
 Frc consts  --      1.6887                 1.7796                 1.7491
 IR Inten    --     35.1257                 4.2268                 3.6574

                     49                     50                     51
                      A                      A                      A
 Frequencies --   1156.0740              1179.5129              1188.3681
 Red. masses --      1.5490                 2.0581                 1.3929
 Frc consts  --      1.2197                 1.6871                 1.1590
 IR Inten    --     16.3115                 1.3688                 1.0357

                     52                     53                     54
                      A                      A                      A
 Frequencies --   1206.4329              1278.1373              1280.0947
 Red. masses --      1.6515                 2.5704                 1.8843
 Frc consts  --      1.4162                 2.4740                 1.8192
 IR Inten    --      3.6602                 4.5221                 2.9168

                     55                     56                     57
                      A                      A                      A
 Frequencies --   1297.4163              1327.2992              1338.0660
 Red. masses --      4.4331                 1.4708                 1.4127
 Frc consts  --      4.3966                 1.5266                 1.4902
 IR Inten    --      5.4569                 4.5911                18.5484

                     58                     59                     60
                      A                      A                      A
 Frequencies --   1355.1754              1385.7074              1394.5034
 Red. masses --      2.2811                 2.3794                 1.3599
 Frc consts  --      2.4682                 2.6919                 1.5581
 IR Inten    --    142.7833               205.4100                 5.3344

                     61                     62                     63
                      A                      A                      A
 Frequencies --   1399.5031              1401.1250              1415.0449
 Red. masses --      1.2721                 1.4473                 2.2276
 Frc consts  --      1.4680                 1.6740                 2.6281
 IR Inten    --      4.6059                33.4521               128.1058

                     64                     65                     66
                      A                      A                      A
 Frequencies --   1421.3667              1423.2640              1487.5768
 Red. masses --      1.2432                 1.5556                 1.0441
 Frc consts  --      1.4798                 1.8566                 1.3612
 IR Inten    --     10.5735                96.5309                 0.3146

                     67                     68                     69
                      A                      A                      A
 Frequencies --   1489.5417              1491.6110              1493.6190
 Red. masses --      1.0497                 1.2318                 1.0488
 Frc consts  --      1.3723                 1.6147                 1.3786
 IR Inten    --      1.2332                 6.9272                 4.2064

                     70                     71                     72
                      A                      A                      A
 Frequencies --   1498.1044              1504.9936              1507.3625
 Red. masses --      1.5839                 1.4124                 1.1261
 Frc consts  --      2.0945                 1.8848                 1.5075
 IR Inten    --     16.0040                21.4114                30.9931

                     73                     74                     75
                      A                      A                      A
 Frequencies --   1514.4019              1517.3551              1518.6127
 Red. masses --      1.1349                 1.2428                 1.4137
 Frc consts  --      1.5335                 1.6859                 1.9208
 IR Inten    --      1.9295                14.6950                 1.1774

                     76                     77                     78
                      A                      A                      A
 Frequencies --   1643.6428              1666.4314              3035.9036
 Red. masses --      6.8328                 6.0782                 1.0831
 Frc consts  --     10.8758                 9.9449                 5.8817
 IR Inten    --     23.4408                23.3730                14.4831

                     79                     80                     81
                      A                      A                      A
 Frequencies --   3051.7417              3053.9616              3054.9787
 Red. masses --      1.0360                 1.0398                 1.0717
 Frc consts  --      5.6845                 5.7138                 5.8932
 IR Inten    --     26.6650                19.6099                11.8764

                     82                     83                     84
                      A                      A                      A
 Frequencies --   3058.6585              3060.4880              3121.8825
 Red. masses --      1.0416                 1.0353                 1.1028
 Frc consts  --      5.7412                 5.7137                 6.3324
 IR Inten    --     29.1833                22.2971                13.5265

                     85                     86                     87
                      A                      A                      A
 Frequencies --   3126.6765              3129.1586              3130.8388
 Red. masses --      1.1026                 1.1027                 1.1014
 Frc consts  --      6.3507                 6.3614                 6.3611
 IR Inten    --      2.6314                20.8832                33.8912

                     88                     89                     90
                      A                      A                      A
 Frequencies --   3131.8578              3137.5396              3140.9780
 Red. masses --      1.1018                 1.1032                 1.1029
 Frc consts  --      6.3672                 6.3986                 6.4107
 IR Inten    --     57.5507                21.4124                17.7860

                     91                     92                     93
                      A                      A                      A
 Frequencies --   3146.2375              3191.4087              3205.7943
 Red. masses --      1.1022                 1.0866                 1.0905
 Frc consts  --      6.4280                 6.5204                 6.6032
 IR Inten    --      9.9881                 3.3451                11.1858

                     94                     95                     96
                      A                      A                      A
 Frequencies --   3219.8348              3885.7460              3929.9073
 Red. masses --      1.0960                 1.0649                 1.0662
 Frc consts  --      6.6946                 9.4736                 9.7016
 IR Inten    --     13.1500                85.0835                63.7673

 - Thermochemistry -
 -------------------
 Temperature   298.150 Kelvin.  Pressure   1.00000 Atm.
 Atom     1 has atomic number  8 and mass  15.99491

 Molecular mass:   206.14781 amu.
 Principal axes and moments of inertia in atomic units:
                           1         2         3
     Eigenvalues --  2184.390183891.846755013.19795
           X           -0.49712   0.86190  -0.10001
           Y           -0.48939  -0.18334   0.85257
           Z            0.71650   0.47277   0.51295
 This molecule is an asymmetric top.
 Rotational symmetry number  1.
 Warning -- assumption of classical behavior for rotation
           may cause significant error
 Rotational temperatures (Kelvin)      0.03965     0.02226     0.01728
 Rotational constants (GHZ):           0.82620     0.46372     0.36000
 Zero-point vibrational energy     776124.0 (Joules/Mol)
                                  185.49808 (Kcal/Mol)
 Warning -- explicit consideration of  26 degrees of freedom as
           vibrations may cause significant error
 Vibrational temperatures:     37.79    56.56    63.49    98.65   168.23
          (Kelvin)            187.43   193.99   222.54   331.17   342.47
                              361.71   377.05   389.50   400.22   425.30
                              445.32   475.22   504.78   635.61   654.58
                              705.84   758.01   788.87   793.90   824.49
                              877.12   933.81   950.53   999.70  1101.70
                             1115.86  1191.45  1202.87  1310.76  1338.24
                             1342.63  1349.95  1385.78  1399.88  1407.42
                             1451.49  1454.70  1501.69  1538.00  1555.91
                             1583.74  1641.43  1644.11  1663.33  1697.06
                             1709.80  1735.79  1838.95  1841.77  1866.69
                             1909.69  1925.18  1949.80  1993.72  2006.38
                             2013.57  2015.91  2035.93  2045.03  2047.76
                             2140.29  2143.12  2146.10  2148.98  2155.44
                             2165.35  2168.76  2178.89  2183.14  2184.94
                             2364.84  2397.62  4367.99  4390.78  4393.97
                             4395.43  4400.73  4403.36  4491.69  4498.59
                             4502.16  4504.58  4506.04  4514.22  4519.17
                             4526.73  4591.73  4612.42  4632.62  5590.72
                             5654.26

 Zero-point correction=                           0.295610 (Hartree/Particle)
 Thermal correction to Energy=                    0.312125
 Thermal correction to Enthalpy=                  0.313069
 Thermal correction to Gibbs Free Energy=         0.251118
 Sum of electronic and zero-point Energies=           -643.753766
 Sum of electronic and thermal Energies=              -643.737251
 Sum of electronic and thermal Enthalpies=            -643.736307
 Sum of electronic and thermal Free Energies=         -643.798258

                     E (Thermal)             CV                S
                      KCal/Mol        Cal/Mol-Kelvin    Cal/Mol-Kelvin
 Total                  195.861             62.245            130.387
 Electronic               0.000              0.000              0.000
 Translational            0.889              2.981             41.874
 Rotational               0.889              2.981             32.122
 Vibrational            194.084             56.284             56.391
 Vibration     1          0.593              1.985              6.093
 Vibration     2          0.594              1.981              5.294
 Vibration     3          0.595              1.980              5.065
 Vibration     4          0.598              1.969              4.194
 Vibration     5          0.608              1.935              3.151
 Vibration     6          0.612              1.923              2.942
 Vibration     7          0.613              1.919              2.876
 Vibration     8          0.620              1.897              2.614
 Vibration     9          0.652              1.795              1.878
 Vibration    10          0.656              1.782              1.818
 Vibration    11          0.663              1.760              1.721
 Vibration    12          0.669              1.742              1.648
 Vibration    13          0.674              1.727              1.592
 Vibration    14          0.679              1.714              1.545
 Vibration    15          0.690              1.682              1.442
 Vibration    16          0.699              1.656              1.365
 Vibration    17          0.713              1.615              1.259
 Vibration    18          0.728              1.574              1.162
 Vibration    19          0.802              1.379              0.821
 Vibration    20          0.813              1.350              0.781
 Vibration    21          0.846              1.271              0.682
 Vibration    22          0.882              1.191              0.594
 Vibration    23          0.904              1.143              0.548
 Vibration    24          0.907              1.136              0.540
 Vibration    25          0.929              1.090              0.498
 Vibration    26          0.969              1.011              0.433

 Optimization completed.
    -- Stationary point found.
 Normal termination of Gaussian 16 at Tue May  6 08:51:06 2025.
