 Gaussian 16, Revision C.01,
 Gaussian 16:  AS64L-G16RevC.01  3-Jul-2019

 ----------------------------------------------------------------------
 # opt=(calcfc,tight) freq 6-311+g(d,p) scrf=(smd,solvent=thf) nosymm s
 cf=(qc,fermi,xqc) geom=connectivity int=ultrafine m062x
 ----------------------------------------------------------------------

 ---------------------------------
 4-isopropyl-phboh2-opt-freq-thf-2
 ---------------------------------
 Symbolic Z-matrix:
 Charge =  0 Multiplicity = 1

 SCF Done:  E(RM062X) =  -526.154908500     A.U. after   13 cycles
 SCF Done:  E(RM062X) =  -526.154908500     A.U. after    5 cycles
 Optimization completed.
    -- Stationary point found.
 Normal termination of Gaussian 16 at Sat Apr 26 20:02:47 2025.

 ----------------------------------------------------------------------
 #N Geom=AllCheck Guess=TCheck SCRF=Check GenChk RM062X/6-311+G(d,p) Fr
 eq
 ----------------------------------------------------------------------

 Structure from the checkpoint file:  "4-isopropyl-phboh2-opt-freq-thf-2.chk"
 ---------------------------------
 4-isopropyl-phboh2-opt-freq-thf-2
 ---------------------------------
 Charge =  0 Multiplicity = 1

                          Input orientation:
 ---------------------------------------------------------------------
 Center     Atomic      Atomic             Coordinates (Angstroms)
 Number     Number       Type             X           Y           Z
 ---------------------------------------------------------------------
      1          8           0        8.762705    7.259872    5.337661
      2          1           0        9.564988    6.971881    5.787984
      3          6           0        6.265533    6.970519    5.162579
      4          5           0        7.653772    6.601924    5.788329
      5          8           0        7.831176    5.660578    6.766613
      6          1           0        7.019317    5.237454    7.061569
      7          6           0        5.082277    6.305024    5.500029
      8          1           0        5.087882    5.486357    6.215206
      9          6           0        3.863061    6.663026    4.931289
     10          1           0        2.959954    6.129887    5.211704
     11          6           0        3.783042    7.701240    4.002459
     12          6           0        4.962782    8.370067    3.656086
     13          1           0        4.929223    9.180373    2.934367
     14          6           0        6.177209    8.009729    4.224509
     15          1           0        7.078790    8.542486    3.940790
     16          6           0        2.456231    8.089430    3.381943
     17          1           0        1.690349    7.446650    3.826814
     18          6           0        2.099575    9.546380    3.694169
     19          1           0        2.825949   10.229699    3.245011
     20          1           0        1.113993    9.791119    3.289407
     21          1           0        2.083192    9.728637    4.771495
     22          6           0        2.463492    7.848014    1.868637
     23          1           0        2.698452    6.806778    1.634643
     24          1           0        1.485333    8.083998    1.441118
     25          1           0        3.207416    8.482637    1.378380
 ---------------------------------------------------------------------

 SCF Done:  E(RM062X) =  -526.154908500     A.U. after    1 cycles

 Alpha  occ. eigenvalues --  -19.63408 -19.62845 -10.55006 -10.54650 -10.54187
 Alpha  occ. eigenvalues --  -10.54056 -10.53898 -10.53774 -10.52603 -10.51846
 Alpha  occ. eigenvalues --  -10.51834  -7.08102  -1.16417  -1.12719  -0.96518
 Alpha  occ. eigenvalues --   -0.89983  -0.84186  -0.82373  -0.76954  -0.70747
 Alpha  occ. eigenvalues --   -0.68643  -0.65362  -0.63776  -0.62469  -0.57007
 Alpha  occ. eigenvalues --   -0.54327  -0.51893  -0.50305  -0.49109  -0.48188
 Alpha  occ. eigenvalues --   -0.48061  -0.47359  -0.47299  -0.45264  -0.44521
 Alpha  occ. eigenvalues --   -0.42616  -0.40619  -0.40394  -0.40239  -0.39465
 Alpha  occ. eigenvalues --   -0.37809  -0.36899  -0.30893  -0.29928
 Alpha virt. eigenvalues --   -0.00054   0.00162   0.01799   0.01908   0.02165
 Alpha virt. eigenvalues --    0.03057   0.03350   0.03918   0.04554   0.04966
 Alpha virt. eigenvalues --    0.06277   0.06775   0.07491   0.07728   0.08071

 Mulliken charges:
               1
     1  O   -0.378748
     2  H    0.321753
     3  C   -0.450623
     4  B    0.505173
     5  O   -0.379007
     6  H    0.281934
     7  C   -0.286836
     8  H    0.168460
     9  C   -0.465163
    10  H    0.180199
    11  C    0.224972
    12  C    0.112386
    13  H    0.186283
    14  C   -0.348486
    15  H    0.193199
    16  C    0.176065
    17  H    0.176727
    18  C   -0.645385
    19  H    0.181340
    20  H    0.176398
    21  H    0.179784
    22  C   -0.648550
    23  H    0.178958
    24  H    0.175964
    25  H    0.183201
 Sum of Mulliken charges =   0.00000

 Dipole moment (field-independent basis, Debye):
    X=             -2.0469    Y=             -0.7300    Z=              0.4199  Tot=              2.2134
 Quadrupole moment (field-independent basis, Debye-Ang):
   XX=            -88.6329   YY=            -80.8705   ZZ=            -66.9272
   XY=            -18.4788   XZ=             -5.2956   YZ=             -6.2921

  Exact polarizability:     191.393      -4.317     146.593      20.499     -31.978     145.029
 Approx polarizability:     171.358       2.300     139.935      11.049     -28.341     135.638

                      1                      2                      3
                      A                      A                      A
 Frequencies --     25.9336                49.5489                70.1639
 Red. masses --      4.4819                 3.3100                 3.7487
 Frc consts  --      0.0018                 0.0048                 0.0109
 IR Inten    --      4.2186                 0.1093                 0.4426

                      4                      5                      6
                      A                      A                      A
 Frequencies --    129.8254               173.4944               224.2003
 Red. masses --      4.8511                 3.4680                 2.4700
 Frc consts  --      0.0482                 0.0615                 0.0732
 IR Inten    --      1.9171                 0.0387                 2.5822

                      7                      8                      9
                      A                      A                      A
 Frequencies --    241.4770               267.7995               281.8011
 Red. masses --      1.2084                 1.7535                 1.6660
 Frc consts  --      0.0415                 0.0741                 0.0779
 IR Inten    --      0.3280                 0.6660                 1.9205

                     10                     11                     12
                      A                      A                      A
 Frequencies --    340.1072               358.0734               404.8626
 Red. masses --      3.7024                 3.0345                 2.4592
 Frc consts  --      0.2523                 0.2292                 0.2375
 IR Inten    --      0.3012                 8.2040                19.8491

                     13                     14                     15
                      A                      A                      A
 Frequencies --    422.3807               454.8592               478.1741
 Red. masses --      4.5630                 1.1957                 3.1824
 Frc consts  --      0.4796                 0.1458                 0.4287
 IR Inten    --      4.9920               198.4321                19.2271

                     16                     17                     18
                      A                      A                      A
 Frequencies --    517.9948               537.6052               569.6870
 Red. masses --      1.6646                 3.0210                 1.7143
 Frc consts  --      0.2632                 0.5144                 0.3278
 IR Inten    --     52.2772                28.5311                 0.5991

                     19                     20                     21
                      A                      A                      A
 Frequencies --    644.6960               657.7586               660.8302
 Red. masses --      5.6640                 3.6174                 3.9680
 Frc consts  --      1.3870                 0.9221                 1.0209
 IR Inten    --      2.0448                25.1978               147.3420

                     22                     23                     24
                      A                      A                      A
 Frequencies --    773.6646               794.7140               862.8472
 Red. masses --      3.9455                 4.5014                 1.5331
 Frc consts  --      1.3914                 1.6750                 0.6725
 IR Inten    --      4.3564                 3.4351                38.5972

                     25                     26                     27
                      A                      A                      A
 Frequencies --    882.5041               918.2895               933.7140
 Red. masses --      1.3225                 2.4066                 1.1410
 Frc consts  --      0.6068                 1.1957                 0.5861
 IR Inten    --     10.8862                 2.0591                 2.0931

                     28                     29                     30
                      A                      A                      A
 Frequencies --    973.0104               991.8090               993.4522
 Red. masses --      1.4601                 1.4177                 1.4535
 Frc consts  --      0.8145                 0.8217                 0.8452
 IR Inten    --      0.2711                47.9569                89.8979

                     31                     32                     33
                      A                      A                      A
 Frequencies --   1020.9980              1027.7099              1037.9293
 Red. masses --      1.3791                 1.9633                 1.8950
 Frc consts  --      0.8470                 1.2217                 1.2028
 IR Inten    --      3.1251               157.0308                51.7483

                     34                     35                     36
                      A                      A                      A
 Frequencies --   1071.5606              1127.5176              1137.9014
 Red. masses --      1.6055                 2.0748                 2.2728
 Frc consts  --      1.0861                 1.5541                 1.7339
 IR Inten    --     27.2887                 9.3327                 4.3898

                     37                     38                     39
                      A                      A                      A
 Frequencies --   1145.5395              1174.2223              1210.8322
 Red. masses --      1.6682                 1.8361                 1.1257
 Frc consts  --      1.2898                 1.4916                 0.9724
 IR Inten    --     93.4156                 2.1243                 3.6119

                     40                     41                     42
                      A                      A                      A
 Frequencies --   1248.8837              1298.2748              1324.8333
 Red. masses --      1.9350                 6.9054                 1.4359
 Frc consts  --      1.7782                 6.8576                 1.4849
 IR Inten    --      3.0284                16.1117                12.0813

                     43                     44                     45
                      A                      A                      A
 Frequencies --   1338.1879              1372.7056              1380.9888
 Red. masses --      1.3762                 3.5632                 1.8022
 Frc consts  --      1.4520                 3.9559                 2.0251
 IR Inten    --      0.6860               633.7643                86.4223

                     46                     47                     48
                      A                      A                      A
 Frequencies --   1391.3993              1395.4523              1412.7588
 Red. masses --      4.8558                 1.2695                 1.2627
 Frc consts  --      5.5388                 1.4565                 1.4848
 IR Inten    --    364.9424                13.2252                 2.4100

                     49                     50                     51
                      A                      A                      A
 Frequencies --   1447.1134              1478.4081              1484.2066
 Red. masses --      2.7452                 1.0447                 1.0468
 Frc consts  --      3.3871                 1.3453                 1.3586
 IR Inten    --    120.9817                 0.3256                 5.4078

                     52                     53                     54
                      A                      A                      A
 Frequencies --   1494.2110              1497.5262              1558.1198
 Red. masses --      1.0532                 1.0692                 2.6827
 Frc consts  --      1.3854                 1.4127                 3.8373
 IR Inten    --     11.0297                19.1174                 8.8188

                     55                     56                     57
                      A                      A                      A
 Frequencies --   1629.3320              1678.3086              3051.7227
 Red. masses --      6.1265                 6.1713                 1.0348
 Frc consts  --      9.5826                10.2416                 5.6779
 IR Inten    --      9.2615               108.3816                33.4668

                     58                     59                     60
                      A                      A                      A
 Frequencies --   3054.0389              3066.6827              3124.0978
 Red. masses --      1.0359                 1.0845                 1.1031
 Frc consts  --      5.6929                 6.0093                 6.3432
 IR Inten    --     27.4706                21.9244                 1.2230

                     61                     62                     63
                      A                      A                      A
 Frequencies --   3128.1932              3130.5714              3131.3722
 Red. masses --      1.1020                 1.1035                 1.1031
 Frc consts  --      6.3538                 6.3720                 6.3729
 IR Inten    --     86.9880                24.0222                42.6721

                     64                     65                     66
                      A                      A                      A
 Frequencies --   3170.3091              3191.8688              3193.6677
 Red. masses --      1.0884                 1.0879                 1.0943
 Frc consts  --      6.4455                 6.5305                 6.5762
 IR Inten    --     20.9826                 3.1071                17.1942

                     67                     68                     69
                      A                      A                      A
 Frequencies --   3207.0674              3854.3387              3884.5019
 Red. masses --      1.0951                 1.0652                 1.0660
 Frc consts  --      6.6363                 9.3232                 9.4767
 IR Inten    --      7.4754               189.9561               124.4190

 - Thermochemistry -
 -------------------
 Temperature   298.150 Kelvin.  Pressure   1.00000 Atm.
 Atom     1 has atomic number  8 and mass  15.99491

 Molecular mass:   164.10086 amu.
 Principal axes and moments of inertia in atomic units:
                           1         2         3
     Eigenvalues --   720.531394247.820394580.38991
           X            0.84279   0.51781  -0.14687
           Y           -0.30077   0.67938   0.66931
           Z            0.44636  -0.51992   0.72832
 This molecule is an asymmetric top.
 Rotational symmetry number  1.
 Warning -- assumption of classical behavior for rotation
           may cause significant error
 Rotational temperatures (Kelvin)      0.12021     0.02039     0.01891
 Rotational constants (GHZ):           2.50474     0.42486     0.39401
 Zero-point vibrational energy     551530.1 (Joules/Mol)
                                  131.81886 (Kcal/Mol)
 Warning -- explicit consideration of  18 degrees of freedom as
           vibrations may cause significant error
 Vibrational temperatures:     37.31    71.29   100.95   186.79   249.62
          (Kelvin)            322.57   347.43   385.30   405.45   489.34
                              515.19   582.51   607.71   654.44   687.99
                              745.28   773.49   819.65   927.57   946.37
                              950.79  1113.13  1143.42  1241.44  1269.73
                             1321.21  1343.41  1399.94  1426.99  1429.36
                             1468.99  1478.65  1493.35  1541.74  1622.25
                             1637.19  1648.18  1689.44  1742.12  1796.87
                             1867.93  1906.14  1925.35  1975.02  1986.93
                             2001.91  2007.74  2032.64  2082.07  2127.10
                             2135.44  2149.84  2154.61  2241.79  2344.25
                             2414.71  4390.75  4394.08  4412.27  4494.88
                             4500.77  4504.19  4505.35  4561.37  4592.39
                             4594.98  4614.25  5545.53  5588.93

 Zero-point correction=                           0.210067 (Hartree/Particle)
 Thermal correction to Energy=                    0.222273
 Thermal correction to Enthalpy=                  0.223217
 Thermal correction to Gibbs Free Energy=         0.170896
 Sum of electronic and zero-point Energies=           -525.944842
 Sum of electronic and thermal Energies=              -525.932636
 Sum of electronic and thermal Enthalpies=            -525.931692
 Sum of electronic and thermal Free Energies=         -525.984013

                     E (Thermal)             CV                S
                      KCal/Mol        Cal/Mol-Kelvin    Cal/Mol-Kelvin
 Total                  139.478             46.371            110.119
 Electronic               0.000              0.000              0.000
 Translational            0.889              2.981             41.194
 Rotational               0.889              2.981             31.017
 Vibrational            137.701             40.410             37.907
 Vibration     1          0.593              1.985              6.118
 Vibration     2          0.595              1.978              4.835
 Vibration     3          0.598              1.968              4.149
 Vibration     4          0.612              1.923              2.949
 Vibration     5          0.627              1.875              2.397
 Vibration     6          0.649              1.804              1.925
 Vibration     7          0.658              1.777              1.792
 Vibration     8          0.673              1.732              1.610
 Vibration     9          0.681              1.707              1.523
 Vibration    10          0.720              1.595              1.212
 Vibration    11          0.733              1.559              1.130
 Vibration    12          0.770              1.460              0.945
 Vibration    13          0.785              1.422              0.884
 Vibration    14          0.813              1.350              0.781
 Vibration    15          0.835              1.298              0.715
 Vibration    16          0.873              1.210              0.615
 Vibration    17          0.893              1.167              0.570
 Vibration    18          0.926              1.097              0.505

 Optimization completed.
    -- Stationary point found.
 Normal termination of Gaussian 16 at Sat Apr 26 20:06:26 2025.
