 Gaussian 16, Revision C.01,
 Gaussian 16:  AS64L-G16RevC.01  3-Jul-2019

 ----------------------------------------------------------------------
 # opt=(calcfc,tight) freq 6-311+g(d,p) scrf=(smd,solvent=thf) nosymm s
 cf=(qc,fermi,xqc) geom=connectivity int=ultrafine m062x
 ----------------------------------------------------------------------

 -----------------------------------
 4-isopropyl-ph-anion-opt-freq-thf-2
 -----------------------------------
 Symbolic Z-matrix:
 Charge = -1 Multiplicity = 1

 SCF Done:  E(RM062X) =  -349.543843446     A.U. after   16 cycles
 SCF Done:  E(RM062X) =  -349.557230226     A.U. after   14 cycles
 SCF Done:  E(RM062X) =  -349.557599458     A.U. after   13 cycles
 SCF Done:  E(RM062X) =  -349.557602793     A.U. after   11 cycles
 SCF Done:  E(RM062X) =  -349.557603413     A.U. after   10 cycles
 SCF Done:  E(RM062X) =  -349.557603509     A.U. after   10 cycles
 SCF Done:  E(RM062X) =  -349.557603529     A.U. after    8 cycles
 SCF Done:  E(RM062X) =  -349.557603529     A.U. after    6 cycles
 Optimization completed.
    -- Stationary point found.
 Normal termination of Gaussian 16 at Tue May 27 07:52:17 2025.

 ----------------------------------------------------------------------
 #N Geom=AllCheck Guess=TCheck SCRF=Check GenChk RM062X/6-311+G(d,p) Fr
 eq
 ----------------------------------------------------------------------

 Structure from the checkpoint file:  "4-isopropyl-ph-anion-opt-freq-thf-2.chk"
 -----------------------------------
 4-isopropyl-ph-anion-opt-freq-thf-2
 -----------------------------------
 Charge = -1 Multiplicity = 1

                          Input orientation:
 ---------------------------------------------------------------------
 Center     Atomic      Atomic             Coordinates (Angstroms)
 Number     Number       Type             X           Y           Z
 ---------------------------------------------------------------------
      1          6           0        6.333934    6.950717    5.207380
      2          6           0        5.102121    6.330538    5.515192
      3          1           0        5.077780    5.523094    6.249948
      4          6           0        3.870556    6.676632    4.941685
      5          1           0        2.963823    6.149552    5.236395
      6          6           0        3.781510    7.695231    3.992667
      7          6           0        4.972483    8.341077    3.646126
      8          1           0        4.952794    9.142170    2.908513
      9          6           0        6.185725    7.971305    4.236715
     10          1           0        7.066555    8.527242    3.908884
     11          6           0        2.453832    8.086031    3.369505
     12          1           0        1.688470    7.432172    3.802042
     13          6           0        2.079378    9.535037    3.701139
     14          1           0        2.809713   10.229683    3.275329
     15          1           0        1.097050    9.786929    3.290049
     16          1           0        2.051738    9.697542    4.781597
     17          6           0        2.455336    7.872327    1.851903
     18          1           0        2.698458    6.837034    1.599536
     19          1           0        1.476232    8.109420    1.424719
     20          1           0        3.196248    8.518316    1.371310
 ---------------------------------------------------------------------

 SCF Done:  E(RM062X) =  -349.557603529     A.U. after    1 cycles

 Alpha  occ. eigenvalues --  -10.51907 -10.50483 -10.50211 -10.50210 -10.49686
 Alpha  occ. eigenvalues --  -10.49672 -10.48659 -10.48570 -10.44506  -0.91707
 Alpha  occ. eigenvalues --   -0.86214  -0.78856  -0.76744  -0.75294  -0.65817
 Alpha  occ. eigenvalues --   -0.63083  -0.59783  -0.52830  -0.49492  -0.47193
 Alpha  occ. eigenvalues --   -0.45665  -0.45328  -0.44368  -0.42967  -0.42818
 Alpha  occ. eigenvalues --   -0.39036  -0.37069  -0.36791  -0.35992  -0.33095
 Alpha  occ. eigenvalues --   -0.26237  -0.24220  -0.19348
 Alpha virt. eigenvalues --    0.03179   0.04716   0.04961   0.05312   0.05780
 Alpha virt. eigenvalues --    0.06522   0.06927   0.07363   0.08155   0.08840
 Alpha virt. eigenvalues --    0.09283   0.09324   0.10028   0.10467   0.12352

 Mulliken charges:
               1
     1  C   -1.046810
     2  C   -0.181529
     3  H    0.142563
     4  C   -0.391227
     5  H    0.152045
     6  C    0.197062
     7  C   -0.083742
     8  H    0.155145
     9  C   -0.080062
    10  H    0.143341
    11  C    0.069679
    12  H    0.165262
    13  C   -0.637401
    14  H    0.175715
    15  H    0.164460
    16  H    0.175535
    17  C   -0.635571
    18  H    0.175670
    19  H    0.164638
    20  H    0.175229
 Sum of Mulliken charges =  -1.00000

 Dipole moment (field-independent basis, Debye):
    X=            -30.9777    Y=            -33.2502    Z=            -25.2365  Tot=             51.9815
 Quadrupole moment (field-independent basis, Debye-Ang):
   XX=           -262.6117   YY=           -291.9782   ZZ=           -195.6605
   XY=           -212.1968   XZ=           -164.5123   YZ=           -176.7225

  Exact polarizability:     189.912      -5.525     147.355      19.929     -28.025     147.883
 Approx polarizability:     159.898       2.263     134.076       8.926     -24.404     131.119

                      1                      2                      3
                      A                      A                      A
 Frequencies --     42.9676               127.7949               215.2701
 Red. masses --      2.9254                 3.5133                 2.4525
 Frc consts  --      0.0032                 0.0338                 0.0670
 IR Inten    --      0.6815                 9.9555                 1.5636

                      4                      5                      6
                      A                      A                      A
 Frequencies --    233.4119               275.1903               311.7423
 Red. masses --      1.0520                 1.1569                 2.6750
 Frc consts  --      0.0338                 0.0516                 0.1532
 IR Inten    --      0.3608                 0.0852                 1.9185

                      7                      8                      9
                      A                      A                      A
 Frequencies --    323.2123               375.6331               465.6906
 Red. masses --      3.7775                 2.6475                 2.8506
 Frc consts  --      0.2325                 0.2201                 0.3642
 IR Inten    --     14.0915                 0.1154                 2.4116

                     10                     11                     12
                      A                      A                      A
 Frequencies --    547.8465               560.5681               646.1016
 Red. masses --      3.0632                 3.1109                 7.0349
 Frc consts  --      0.5417                 0.5760                 1.7303
 IR Inten    --     47.0091                 2.4730                 0.2917

                     13                     14                     15
                      A                      A                      A
 Frequencies --    733.9421               750.4925               830.2008
 Red. masses --      2.5710                 3.7291                 1.6741
 Frc consts  --      0.8160                 1.2375                 0.6798
 IR Inten    --     11.3487                 3.3879                35.4921

                     16                     17                     18
                      A                      A                      A
 Frequencies --    879.4881               915.5461               927.9801
 Red. masses --      1.2558                 2.3898                 1.1439
 Frc consts  --      0.5723                 1.1803                 0.5804
 IR Inten    --      0.0059                 0.7913                 1.6317

                     19                     20                     21
                      A                      A                      A
 Frequencies --    968.4411               979.1308               990.8732
 Red. masses --      1.4787                 1.3030                 7.1487
 Frc consts  --      0.8171                 0.7360                 4.1354
 IR Inten    --      0.1338                 2.4131                 0.3433

                     22                     23                     24
                      A                      A                      A
 Frequencies --    999.7790              1043.0509              1066.7568
 Red. masses --      1.4342                 2.4638                 1.6104
 Frc consts  --      0.8447                 1.5793                 1.0798
 IR Inten    --      0.0374                30.9504                 5.4384

                     25                     26                     27
                      A                      A                      A
 Frequencies --   1103.2165              1138.1497              1168.8329
 Red. masses --      1.5125                 2.2486                 1.8981
 Frc consts  --      1.0846                 1.7162                 1.5278
 IR Inten    --      5.0380                 2.8124                 0.9588

                     28                     29                     30
                      A                      A                      A
 Frequencies --   1205.0638              1234.5635              1253.2814
 Red. masses --      1.1670                 2.6556                 3.0584
 Frc consts  --      0.9985                 2.3847                 2.8304
 IR Inten    --      0.2239                22.3783                30.1814

                     31                     32                     33
                      A                      A                      A
 Frequencies --   1319.9809              1339.8809              1362.5351
 Red. masses --      1.5308                 1.3601                 1.6100
 Frc consts  --      1.5715                 1.4387                 1.7610
 IR Inten    --      6.9281                 1.5967                 7.9507

                     34                     35                     36
                      A                      A                      A
 Frequencies --   1391.8520              1401.9004              1411.0002
 Red. masses --      1.2814                 1.6329                 1.4539
 Frc consts  --      1.4626                 1.8908                 1.7055
 IR Inten    --     13.4854                 0.0767                11.2694

                     37                     38                     39
                      A                      A                      A
 Frequencies --   1478.0340              1482.4071              1490.8348
 Red. masses --      1.0454                 1.0465                 1.1971
 Frc consts  --      1.3455                 1.3549                 1.5677
 IR Inten    --      0.2234                 4.9171                 1.6294

                     40                     41                     42
                      A                      A                      A
 Frequencies --   1492.0516              1501.1890              1590.7778
 Red. masses --      1.1655                 1.5377                 5.6984
 Frc consts  --      1.5288                 2.0417                 8.4961
 IR Inten    --     13.4570                11.2854                 5.1094

                     43                     44                     45
                      A                      A                      A
 Frequencies --   1628.7386              3044.4631              3047.4095
 Red. masses --      5.6221                 1.0350                 1.0368
 Frc consts  --      8.7873                 5.6524                 5.6729
 IR Inten    --      1.5709                37.6743                43.2757

                     46                     47                     48
                      A                      A                      A
 Frequencies --   3051.1229              3094.9512              3095.3744
 Red. masses --      1.0832                 1.0858                 1.0854
 Frc consts  --      5.9411                 6.1279                 6.1275
 IR Inten    --     32.6263               134.1942                20.8263

                     49                     50                     51
                      A                      A                      A
 Frequencies --   3113.4362              3117.4733              3124.5309
 Red. masses --      1.1027                 1.1018                 1.1031
 Frc consts  --      6.2976                 6.3091                 6.3450
 IR Inten    --      0.3530               107.4852                29.1804

                     52                     53                     54
                      A                      A                      A
 Frequencies --   3125.6805              3142.3290              3149.4519
 Red. masses --      1.1025                 1.0916                 1.0912
 Frc consts  --      6.3462                 6.3507                 6.3770
 IR Inten    --     38.3390                90.1202                62.6244

 - Thermochemistry -
 -------------------
 Temperature   298.150 Kelvin.  Pressure   1.00000 Atm.
 Atom     1 has atomic number  6 and mass  12.00000

 Molecular mass:   119.08608 amu.
 Principal axes and moments of inertia in atomic units:
                           1         2         3
     Eigenvalues --   527.428021649.423991791.11071
           X            0.79464   0.58952  -0.14497
           Y           -0.35878   0.64866   0.67120
           Z            0.48972  -0.48135   0.72696
 This molecule is an asymmetric top.
 Rotational symmetry number  1.
 Warning -- assumption of classical behavior for rotation
           may cause significant error
 Rotational temperatures (Kelvin)      0.16422     0.05251     0.04836
 Rotational constants (GHZ):           3.42178     1.09416     1.00761
 Zero-point vibrational energy     450463.5 (Joules/Mol)
                                  107.66337 (Kcal/Mol)
 Warning -- explicit consideration of  11 degrees of freedom as
           vibrations may cause significant error
 Vibrational temperatures:     61.82   183.87   309.73   335.83   395.94
          (Kelvin)            448.53   465.03   540.45   670.02   788.23
                              806.53   929.60  1055.98  1079.79  1194.47
                             1265.39  1317.27  1335.16  1393.37  1408.75
                             1425.65  1438.46  1500.72  1534.83  1587.28
                             1637.54  1681.69  1733.82  1776.26  1803.19
                             1899.16  1927.79  1960.38  2002.56  2017.02
                             2030.11  2126.56  2132.85  2144.98  2146.73
                             2159.88  2288.77  2343.39  4380.30  4384.54
                             4389.89  4452.94  4453.55  4479.54  4485.35
                             4495.50  4497.16  4521.11  4531.36

 Zero-point correction=                           0.171573 (Hartree/Particle)
 Thermal correction to Energy=                    0.180160
 Thermal correction to Enthalpy=                  0.181104
 Thermal correction to Gibbs Free Energy=         0.138049
 Sum of electronic and zero-point Energies=           -349.386031
 Sum of electronic and thermal Energies=              -349.377444
 Sum of electronic and thermal Enthalpies=            -349.376500
 Sum of electronic and thermal Free Energies=         -349.419554

                     E (Thermal)             CV                S
                      KCal/Mol        Cal/Mol-Kelvin    Cal/Mol-Kelvin
 Total                  113.052             32.821             90.616
 Electronic               0.000              0.000              0.000
 Translational            0.889              2.981             40.239
 Rotational               0.889              2.981             28.834
 Vibrational            111.274             26.859             21.543
 Vibration     1          0.595              1.980              5.117
 Vibration     2          0.611              1.925              2.979
 Vibration     3          0.645              1.818              1.999
 Vibration     4          0.654              1.790              1.853
 Vibration     5          0.677              1.719              1.563
 Vibration     6          0.700              1.651              1.353
 Vibration     7          0.708              1.629              1.294
 Vibration     8          0.746              1.522              1.057
 Vibration     9          0.823              1.326              0.750
 Vibration    10          0.903              1.144              0.549
 Vibration    11          0.916              1.117              0.523

 Optimization completed.
    -- Stationary point found.
 Normal termination of Gaussian 16 at Tue May 27 07:54:13 2025.
