 Gaussian 16, Revision C.01,
 Gaussian 16:  AS64L-G16RevC.01  3-Jul-2019

 ----------------------------------------------------------------------
 # opt=(calcfc,tight) freq 6-311+g(d,p) scrf=(smd,solvent=thf) nosymm s
 cf=(qc,fermi,xqc) geom=connectivity int=ultrafine m062x
 ----------------------------------------------------------------------

 ------------------------
 2-Me-phboh2-opt-freq-thf
 ------------------------
 Symbolic Z-matrix:
 Charge =  0 Multiplicity = 1

 SCF Done:  E(RM062X) =  -447.542348714     A.U. after   14 cycles
 SCF Done:  E(RM062X) =  -447.542448032     A.U. after   12 cycles
 SCF Done:  E(RM062X) =  -447.542450115     A.U. after   10 cycles
 SCF Done:  E(RM062X) =  -447.542451089     A.U. after   10 cycles
 SCF Done:  E(RM062X) =  -447.542451087     A.U. after    7 cycles
 SCF Done:  E(RM062X) =  -447.542451096     A.U. after    7 cycles
 Optimization completed.
    -- Stationary point found.
 Normal termination of Gaussian 16 at Sat Apr 26 20:05:48 2025.

 ----------------------------------------------------------------------
 #N Geom=AllCheck Guess=TCheck SCRF=Check GenChk RM062X/6-311+G(d,p) Fr
 eq
 ----------------------------------------------------------------------

 Structure from the checkpoint file:  "2-Me-phboh2-opt-freq-thf.chk"
 ------------------------
 2-Me-phboh2-opt-freq-thf
 ------------------------
 Charge =  0 Multiplicity = 1

                          Input orientation:
 ---------------------------------------------------------------------
 Center     Atomic      Atomic             Coordinates (Angstroms)
 Number     Number       Type             X           Y           Z
 ---------------------------------------------------------------------
      1          8           0        8.848729    6.944568    5.197134
      2          1           0        9.605000    6.578362    5.671095
      3          6           0        6.296488    7.014560    5.130707
      4          5           0        7.665472    6.543401    5.744332
      5          8           0        7.728103    5.696125    6.819875
      6          1           0        6.870250    5.494825    7.206491
      7          6           0        5.201042    6.143664    5.214694
      8          1           0        5.318370    5.173238    5.690209
      9          6           0        3.958163    6.470774    4.682606
     10          1           0        3.131479    5.773395    4.753630
     11          6           0        3.792481    7.702479    4.060408
     12          6           0        4.865333    8.584996    3.974002
     13          1           0        4.726760    9.548309    3.493659
     14          6           0        6.120932    8.260380    4.492452
     15          1           0        2.830316    7.979909    3.644110
     16          6           0        7.245982    9.256761    4.361604
     17          1           0        7.756488    9.410330    5.314266
     18          1           0        7.997997    8.905553    3.651667
     19          1           0        6.864414   10.217641    4.012963
 ---------------------------------------------------------------------

 SCF Done:  E(RM062X) =  -447.542451096     A.U. after    1 cycles

 Alpha  occ. eigenvalues --  -19.63385 -19.62965 -10.55412 -10.54581 -10.54360
 Alpha  occ. eigenvalues --  -10.53931 -10.53761 -10.52795 -10.52087  -7.08260
 Alpha  occ. eigenvalues --   -1.16524  -1.12778  -0.96200  -0.86837  -0.84176
 Alpha  occ. eigenvalues --   -0.77064  -0.69316  -0.66593  -0.64677  -0.62051
 Alpha  occ. eigenvalues --   -0.57839  -0.53299  -0.51833  -0.50064  -0.48772
 Alpha  occ. eigenvalues --   -0.47125  -0.46656  -0.45771  -0.44758  -0.43089
 Alpha  occ. eigenvalues --   -0.42369  -0.40145  -0.39430  -0.37316  -0.31023
 Alpha  occ. eigenvalues --   -0.29782
 Alpha virt. eigenvalues --   -0.00078   0.00215   0.01751   0.02086   0.02287
 Alpha virt. eigenvalues --    0.03250   0.04048   0.04597   0.05439   0.06724
 Alpha virt. eigenvalues --    0.07249   0.07631   0.08356   0.09948   0.10524

 Mulliken charges:
               1
     1  O   -0.372548
     2  H    0.306443
     3  C   -0.813592
     4  B    0.413049
     5  O   -0.369156
     6  H    0.284789
     7  C    0.048364
     8  H    0.172375
     9  C   -0.302036
    10  H    0.186349
    11  C   -0.105520
    12  C   -0.767971
    13  H    0.184253
    14  C    1.130765
    15  H    0.190030
    16  C   -0.770629
    17  H    0.191955
    18  H    0.214258
    19  H    0.178821
 Sum of Mulliken charges =   0.00000

 Dipole moment (field-independent basis, Debye):
    X=             -0.9712    Y=             -0.2464    Z=              0.9028  Tot=              1.3487
 Quadrupole moment (field-independent basis, Debye-Ang):
   XX=            -65.4511   YY=            -58.6649   ZZ=            -50.7633
   XY=             -6.9298   XZ=              2.7886   YZ=              1.3348

  Exact polarizability:     154.153       8.197     132.286      15.548     -25.268      99.297
 Approx polarizability:     141.100       6.303     124.880      12.406     -21.422      97.379

                      1                      2                      3
                      A                      A                      A
 Frequencies --     52.0986               111.8621               168.3083
 Red. masses --      5.5065                 4.1211                 1.2608
 Frc consts  --      0.0088                 0.0304                 0.0210
 IR Inten    --      2.1119                 0.9016                 0.9203

                      4                      5                      6
                      A                      A                      A
 Frequencies --    185.1671               214.9677               312.2242
 Red. masses --      2.9327                 2.8448                 4.5284
 Frc consts  --      0.0592                 0.0775                 0.2601
 IR Inten    --      2.3602                 5.3500                 5.0272

                      7                      8                      9
                      A                      A                      A
 Frequencies --    335.9621               403.1381               461.9827
 Red. masses --      4.4448                 2.9544                 2.9792
 Frc consts  --      0.2956                 0.2829                 0.3746
 IR Inten    --      5.3881                 6.0032                20.1138

                     10                     11                     12
                      A                      A                      A
 Frequencies --    497.5572               514.0761               528.7589
 Red. masses --      2.0449                 1.3762                 3.9013
 Frc consts  --      0.2983                 0.2143                 0.6427
 IR Inten    --     42.1888               215.3198                36.8995

                     13                     14                     15
                      A                      A                      A
 Frequencies --    569.0798               575.4806               664.2358
 Red. masses --      1.3174                 4.2432                 5.0309
 Frc consts  --      0.2514                 0.8279                 1.3078
 IR Inten    --      2.5069                19.3355               104.8484

                     16                     17                     18
                      A                      A                      A
 Frequencies --    707.2688               749.4934               781.7805
 Red. masses --      5.1448                 2.3735                 1.5383
 Frc consts  --      1.5163                 0.7856                 0.5539
 IR Inten    --      7.8048                50.9551                45.0368

                     19                     20                     21
                      A                      A                      A
 Frequencies --    820.8932               904.8392               986.6146
 Red. masses --      4.6550                 1.2935                 1.3832
 Frc consts  --      1.8482                 0.6240                 0.7933
 IR Inten    --      3.4038                 0.5284                 6.3593

                     22                     23                     24
                      A                      A                      A
 Frequencies --    998.7678              1016.2238              1024.1961
 Red. masses --      1.5588                 1.5500                 1.3267
 Frc consts  --      0.9162                 0.9431                 0.8199
 IR Inten    --    125.8551                 1.4671                 2.6836

                     25                     26                     27
                      A                      A                      A
 Frequencies --   1037.5454              1063.9464              1078.1461
 Red. masses --      1.4469                 1.5826                 2.3952
 Frc consts  --      0.9177                 1.0555                 1.6404
 IR Inten    --    180.7445                 6.6648                 8.1500

                     28                     29                     30
                      A                      A                      A
 Frequencies --   1106.0627              1154.4036              1174.4766
 Red. masses --      2.5677                 1.5475                 1.1305
 Frc consts  --      1.8507                 1.2151                 0.9188
 IR Inten    --     94.1602                 4.5910                 0.3689

                     31                     32                     33
                      A                      A                      A
 Frequencies --   1235.3152              1295.9913              1311.1621
 Red. masses --      2.3694                 3.0103                 1.9682
 Frc consts  --      2.1303                 2.9789                 1.9936
 IR Inten    --      2.2170                29.4097                24.4911

                     34                     35                     36
                      A                      A                      A
 Frequencies --   1365.3070              1395.2389              1414.7271
 Red. masses --      4.7482                 4.4549                 1.2506
 Frc consts  --      5.2148                 5.1095                 1.4748
 IR Inten    --    515.9749               412.5801                 1.9850

                     37                     38                     39
                      A                      A                      A
 Frequencies --   1472.0798              1479.4059              1489.8341
 Red. masses --      1.6042                 1.0707                 1.4322
 Frc consts  --      2.0482                 1.3807                 1.8729
 IR Inten    --     95.9324                23.0831                44.6619

                     40                     41                     42
                      A                      A                      A
 Frequencies --   1531.2819              1635.6860              1668.6582
 Red. masses --      2.6120                 6.1256                 5.9735
 Frc consts  --      3.6086                 9.6560                 9.7997
 IR Inten    --     35.0189                13.3803                57.5740

                     43                     44                     45
                      A                      A                      A
 Frequencies --   3070.0178              3136.6386              3149.4953
 Red. masses --      1.0361                 1.1011                 1.1037
 Frc consts  --      5.7535                 6.3825                 6.4506
 IR Inten    --     20.3574                10.5795                18.2636

                     46                     47                     48
                      A                      A                      A
 Frequencies --   3172.4206              3193.6608              3207.5627
 Red. masses --      1.0898                 1.0887                 1.0922
 Frc consts  --      6.4619                 6.5423                 6.6207
 IR Inten    --     13.9203                 4.7881                13.5304

                     49                     50                     51
                      A                      A                      A
 Frequencies --   3221.1595              3844.5619              3877.5767
 Red. masses --      1.0983                 1.0650                 1.0661
 Frc consts  --      6.7141                 9.2744                 9.4441
 IR Inten    --     11.6885               172.4662               130.3512

 - Thermochemistry -
 -------------------
 Temperature   298.150 Kelvin.  Pressure   1.00000 Atm.
 Atom     1 has atomic number  8 and mass  15.99491

 Molecular mass:   136.06956 amu.
 Principal axes and moments of inertia in atomic units:
                           1         2         3
     Eigenvalues --   826.023611652.614682390.58720
           X            0.88520   0.41373  -0.21273
           Y           -0.26753   0.82681   0.49479
           Z            0.38059  -0.38107   0.84258
 This molecule is an asymmetric top.
 Rotational symmetry number  1.
 Warning -- assumption of classical behavior for rotation
           may cause significant error
 Rotational temperatures (Kelvin)      0.10486     0.05241     0.03623
 Rotational constants (GHZ):           2.18485     1.09205     0.75494
 Zero-point vibrational energy     402946.2 (Joules/Mol)
                                   96.30645 (Kcal/Mol)
 Warning -- explicit consideration of  14 degrees of freedom as
           vibrations may cause significant error
 Vibrational temperatures:     74.96   160.94   242.16   266.41   309.29
          (Kelvin)            449.22   483.37   580.03   664.69   715.87
                              739.64   760.77   818.78   827.99   955.69
                             1017.60  1078.35  1124.81  1181.08  1301.86
                             1419.52  1437.00  1462.12  1473.59  1492.80
                             1530.78  1551.21  1591.38  1660.93  1689.81
                             1777.34  1864.64  1886.47  1964.37  2007.44
                             2035.48  2117.99  2128.54  2143.54  2203.17
                             2353.39  2400.83  4417.07  4512.92  4531.42
                             4564.41  4594.97  4614.97  4634.53  5531.47
                             5578.97

 Zero-point correction=                           0.153474 (Hartree/Particle)
 Thermal correction to Energy=                    0.162842
 Thermal correction to Enthalpy=                  0.163786
 Thermal correction to Gibbs Free Energy=         0.118896
 Sum of electronic and zero-point Energies=           -447.388977
 Sum of electronic and thermal Energies=              -447.379609
 Sum of electronic and thermal Enthalpies=            -447.378665
 Sum of electronic and thermal Free Energies=         -447.423556

                     E (Thermal)             CV                S
                      KCal/Mol        Cal/Mol-Kelvin    Cal/Mol-Kelvin
 Total                  102.185             35.940             94.481
 Electronic               0.000              0.000              0.000
 Translational            0.889              2.981             40.636
 Rotational               0.889              2.981             29.569
 Vibrational            100.408             29.978             24.276
 Vibration     1          0.596              1.977              4.736
 Vibration     2          0.607              1.940              3.236
 Vibration     3          0.625              1.881              2.454
 Vibration     4          0.631              1.860              2.276
 Vibration     5          0.645              1.818              2.001
 Vibration     6          0.701              1.650              1.351
 Vibration     7          0.717              1.604              1.231
 Vibration     8          0.769              1.463              0.951
 Vibration     9          0.820              1.334              0.760
 Vibration    10          0.853              1.255              0.664
 Vibration    11          0.869              1.219              0.624
 Vibration    12          0.884              1.186              0.590
 Vibration    13          0.925              1.098              0.506
 Vibration    14          0.932              1.084              0.494

 Optimization completed.
    -- Stationary point found.
 Normal termination of Gaussian 16 at Sat Apr 26 20:07:39 2025.
