 Gaussian 16, Revision C.01,
 Gaussian 16:  AS64L-G16RevC.01  3-Jul-2019

 ----------------------------------------------------------------------
 # opt=(calcfc,tight) freq 6-311+g(d,p) scrf=(smd,solvent=thf) nosymm s
 cf=(qc,fermi,xqc) geom=connectivity int=ultrafine m062x
 ----------------------------------------------------------------------

 --------------------------
 3-5-diMe-ph-opt-freq-thf-2
 --------------------------
 Symbolic Z-matrix:
 Charge =  0 Multiplicity = 2

 SCF Done:  E(UM062X) =  -310.135974610     A.U. after   17 cycles
 SCF Done:  E(UM062X) =  -310.135974610     A.U. after    4 cycles
 Optimization completed.
    -- Stationary point found.
 Normal termination of Gaussian 16 at Mon May 12 14:00:07 2025.

 ----------------------------------------------------------------------
 #N Geom=AllCheck Guess=TCheck SCRF=Check GenChk UM062X/6-311+G(d,p) Fr
 eq
 ----------------------------------------------------------------------

 Structure from the checkpoint file:  "3-5-diMe-ph-opt-freq-thf-2.chk"
 --------------------------
 3-5-diMe-ph-opt-freq-thf-2
 --------------------------
 Charge =  0 Multiplicity = 2

                          Input orientation:
 ---------------------------------------------------------------------
 Center     Atomic      Atomic             Coordinates (Angstroms)
 Number     Number       Type             X           Y           Z
 ---------------------------------------------------------------------
      1          6           0        6.133753    7.072674    5.244308
      2          6           0        5.100971    6.182231    5.368533
      3          1           0        5.193747    5.255432    5.926238
      4          6           0        3.888580    6.518211    4.738305
      5          6           0        3.810480    7.720257    4.036208
      6          6           0        4.892865    8.603038    3.932670
      7          6           0        6.097815    8.266516    4.562418
      8          1           0        6.954773    8.929976    4.507453
      9          1           0        2.874394    7.983938    3.551796
     10          6           0        4.761926    9.880181    3.145084
     11          1           0        5.601434   10.549561    3.337365
     12          1           0        4.736536    9.668554    2.072282
     13          1           0        3.836785   10.402308    3.399123
     14          6           0        2.710518    5.584183    4.828044
     15          1           0        2.927179    4.640138    4.320838
     16          1           0        2.478311    5.350497    5.869893
     17          1           0        1.824695    6.023516    4.367487
 ---------------------------------------------------------------------

 SCF Done:  E(UM062X) =  -310.135974610     A.U. after    1 cycles

 Alpha  occ. eigenvalues --  -10.56484 -10.55738 -10.55717 -10.54225 -10.54191
 Alpha  occ. eigenvalues --  -10.53489 -10.52699 -10.52697  -0.97346  -0.88426
 Alpha  occ. eigenvalues --   -0.85758  -0.77987  -0.77539  -0.66400  -0.65289
 Alpha  occ. eigenvalues --   -0.57988  -0.54567  -0.49413  -0.48763  -0.47834
 Alpha  occ. eigenvalues --   -0.47615  -0.45721  -0.44471  -0.43547  -0.42042
 Alpha  occ. eigenvalues --   -0.40108  -0.30875  -0.29801  -0.29533
 Alpha virt. eigenvalues --    0.01515   0.01955   0.01969   0.03297   0.03744
 Alpha virt. eigenvalues --    0.04980   0.05119   0.05303   0.06748   0.07210
 Alpha virt. eigenvalues --    0.08231   0.08347   0.09235   0.09359   0.11465

  Beta  occ. eigenvalues --  -10.55654 -10.55634 -10.55540 -10.54232 -10.54202
  Beta  occ. eigenvalues --  -10.53520 -10.52692 -10.52689  -0.96599  -0.88156
  Beta  occ. eigenvalues --   -0.84324  -0.77883  -0.77177  -0.64915  -0.64405
  Beta  occ. eigenvalues --   -0.57369  -0.53825  -0.49253  -0.48248  -0.47603
  Beta  occ. eigenvalues --   -0.47317  -0.45648  -0.43209  -0.42506  -0.41231
  Beta  occ. eigenvalues --   -0.39794  -0.29784  -0.29613
  Beta virt. eigenvalues --   -0.04762   0.01601   0.02077   0.02841   0.03301
  Beta virt. eigenvalues --    0.03817   0.05123   0.05304   0.05476   0.06801
  Beta virt. eigenvalues --    0.07228   0.08277   0.09011   0.09216   0.09402

 Mulliken charges and spin densities:
               1          2
     1  C    0.423351   0.755659
     2  C   -0.615050   0.083434
     3  H    0.200419   0.017939
     4  C    0.838659   0.010028
     5  C   -0.747929  -0.053421
     6  C    0.702118   0.015824
     7  C   -0.996593   0.133893
     8  H    0.197243   0.016883
     9  H    0.187249   0.003756
    10  C   -0.690860   0.006139
    11  H    0.183303   0.000090
    12  H    0.211682   0.000999
    13  H    0.188624   0.001230
    14  C   -0.668257   0.005258
    15  H    0.206283   0.000444
    16  H    0.195677   0.000308
    17  H    0.184081   0.001536
 Sum of Mulliken charges =   0.00000   1.00000

 Dipole moment (field-independent basis, Debye):
    X=             -1.5405    Y=              0.3558    Z=             -0.8200  Tot=              1.7810
 Quadrupole moment (field-independent basis, Debye-Ang):
   XX=            -61.4533   YY=            -37.9602   ZZ=            -57.3173
   XY=             -6.6664   XZ=            -10.5913   YZ=             -8.5031

  Exact polarizability:     130.044      13.418     134.108      11.649     -26.978      97.629
 Approx polarizability:     121.233       9.468     121.062      11.262     -22.005      92.897

                      1                      2                      3
                      A                      A                      A
 Frequencies --     57.0445                64.1080               198.6664
 Red. masses --      1.0384                 1.0407                 2.8968
 Frc consts  --      0.0020                 0.0025                 0.0674
 IR Inten    --      0.3102                 0.5173                 7.1122

                      4                      5                      6
                      A                      A                      A
 Frequencies --    219.0276               276.1090               409.7120
 Red. masses --      2.9663                 2.5454                 2.5729
 Frc consts  --      0.0838                 0.1143                 0.2545
 IR Inten    --      0.0280                 1.2473                 0.3097

                      7                      8                      9
                      A                      A                      A
 Frequencies --    474.0649               506.4574               518.8755
 Red. masses --      4.3321                 4.8309                 2.9982
 Frc consts  --      0.5736                 0.7301                 0.4756
 IR Inten    --      0.2049                 0.0382                 0.0489

                     10                     11                     12
                      A                      A                      A
 Frequencies --    544.2793               671.3836               726.4200
 Red. masses --      4.7967                 2.3197                 6.6861
 Frc consts  --      0.8372                 0.6161                 2.0787
 IR Inten    --      0.3960                39.6558                 2.0574

                     13                     14                     15
                      A                      A                      A
 Frequencies --    838.5198               875.7814               914.6584
 Red. masses --      1.3949                 1.3322                 1.3046
 Frc consts  --      0.5779                 0.6020                 0.6431
 IR Inten    --     64.3580                 0.0653                 1.9465

                     16                     17                     18
                      A                      A                      A
 Frequencies --    939.2403               995.4760              1009.9237
 Red. masses --      3.3024                 2.7076                 1.8820
 Frc consts  --      1.7164                 1.5809                 1.1309
 IR Inten    --      1.7811                 0.9510                 3.6287

                     19                     20                     21
                      A                      A                      A
 Frequencies --   1032.6210              1061.7074              1063.1687
 Red. masses --      1.6126                 1.5449                 1.5452
 Frc consts  --      1.0131                 1.0260                 1.0290
 IR Inten    --      1.7367                 9.5320                11.6160

                     22                     23                     24
                      A                      A                      A
 Frequencies --   1100.1959              1180.0698              1264.5773
 Red. masses --      1.4817                 1.3544                 2.3279
 Frc consts  --      1.0567                 1.1113                 2.1933
 IR Inten    --     19.4233                 0.1210                 0.2179

                     25                     26                     27
                      A                      A                      A
 Frequencies --   1274.2982              1303.6757              1405.2690
 Red. masses --      1.6248                 4.4766                 1.2401
 Frc consts  --      1.5545                 4.4827                 1.4429
 IR Inten    --      0.9558                 1.1178                 1.8526

                     28                     29                     30
                      A                      A                      A
 Frequencies --   1408.5484              1441.7519              1470.0558
 Red. masses --      1.2874                 2.0503                 1.3864
 Frc consts  --      1.5048                 2.5110                 1.7653
 IR Inten    --      0.5412                 1.6694                 2.1734

                     31                     32                     33
                      A                      A                      A
 Frequencies --   1476.1825              1477.5477              1490.9857
 Red. masses --      1.0678                 1.0490                 1.4963
 Frc consts  --      1.3709                 1.3493                 1.9598
 IR Inten    --     17.8813                 9.6372                39.8860

                     34                     35                     36
                      A                      A                      A
 Frequencies --   1497.2301              1590.0275              1671.8364
 Red. masses --      1.7971                 5.8086                 7.2427
 Frc consts  --      2.3736                 8.6523                11.9272
 IR Inten    --     29.6045                27.9235                78.6232

                     37                     38                     39
                      A                      A                      A
 Frequencies --   3061.4644              3063.0199              3125.2876
 Red. masses --      1.0374                 1.0367                 1.1005
 Frc consts  --      5.7287                 5.7306                 6.3332
 IR Inten    --     23.3691                19.6322                11.4411

                     40                     41                     42
                      A                      A                      A
 Frequencies --   3126.2249              3149.6582              3150.1078
 Red. masses --      1.1014                 1.1033                 1.1031
 Frc consts  --      6.3423                 6.4484                 6.4491
 IR Inten    --     11.6926                15.3661                16.7125

                     43                     44                     45
                      A                      A                      A
 Frequencies --   3184.0440              3188.2743              3196.2056
 Red. masses --      1.0910                 1.0906                 1.0911
 Frc consts  --      6.5169                 6.5319                 6.5671
 IR Inten    --      9.8110                 1.3932                 0.9604

 - Thermochemistry -
 -------------------
 Temperature   298.150 Kelvin.  Pressure   1.00000 Atm.
 Atom     1 has atomic number  6 and mass  12.00000

 Molecular mass:   105.07043 amu.
 Principal axes and moments of inertia in atomic units:
                           1         2         3
     Eigenvalues --   465.092271027.539901470.25379
           X            0.40586   0.86164  -0.30473
           Y            0.85121  -0.23498   0.46928
           Z           -0.33274   0.44985   0.82880
 This molecule is an asymmetric top.
 Rotational symmetry number  1.
 Warning -- assumption of classical behavior for rotation
           may cause significant error
 Rotational temperatures (Kelvin)      0.18623     0.08429     0.05891
 Rotational constants (GHZ):           3.88039     1.75637     1.22750
 Zero-point vibrational energy     374992.1 (Joules/Mol)
                                   89.62526 (Kcal/Mol)
 Warning -- explicit consideration of  10 degrees of freedom as
           vibrations may cause significant error
 Vibrational temperatures:     82.07    92.24   285.84   315.13   397.26
          (Kelvin)            589.48   682.07   728.68   746.55   783.10
                              965.97  1045.16  1206.44  1260.05  1315.99
                             1351.36  1432.27  1453.05  1485.71  1527.56
                             1529.66  1582.94  1697.86  1819.44  1833.43
                             1875.70  2021.87  2026.59  2074.36  2115.08
                             2123.90  2125.86  2145.20  2154.18  2287.69
                             2405.40  4404.76  4407.00  4496.59  4497.94
                             4531.66  4532.30  4581.13  4587.22  4598.63

 Zero-point correction=                           0.142827 (Hartree/Particle)
 Thermal correction to Energy=                    0.150745
 Thermal correction to Enthalpy=                  0.151690
 Thermal correction to Gibbs Free Energy=         0.109288
 Sum of electronic and zero-point Energies=           -309.993148
 Sum of electronic and thermal Energies=              -309.985229
 Sum of electronic and thermal Enthalpies=            -309.984285
 Sum of electronic and thermal Free Energies=         -310.026686

                     E (Thermal)             CV                S
                      KCal/Mol        Cal/Mol-Kelvin    Cal/Mol-Kelvin
 Total                   94.594             28.832             89.241
 Electronic               0.000              0.000              1.377
 Translational            0.889              2.981             39.865
 Rotational               0.889              2.981             28.043
 Vibrational             92.817             22.871             19.955
 Vibration     1          0.596              1.975              4.557
 Vibration     2          0.597              1.971              4.327
 Vibration     3          0.637              1.842              2.145
 Vibration     4          0.647              1.812              1.967
 Vibration     5          0.678              1.718              1.558
 Vibration     6          0.774              1.449              0.928
 Vibration     7          0.831              1.308              0.726
 Vibration     8          0.862              1.236              0.642
 Vibration     9          0.874              1.208              0.613
 Vibration    10          0.899              1.152              0.556

 Optimization completed.
    -- Stationary point found.
 Normal termination of Gaussian 16 at Mon May 12 14:02:14 2025.
