 Gaussian 16, Revision C.01,
 Gaussian 16:  AS64L-G16RevC.01  3-Jul-2019

 ----------------------------------------------------------------------
 # opt=(calcfc,tight) freq 6-311+g(d,p) scrf=(smd,solvent=thf) nosymm s
 cf=(qc,fermi,xqc) geom=connectivity int=ultrafine m062x guess=read
 ----------------------------------------------------------------------

 --------------------------------
 3-5-diMe-ph-anion-opt-freq-thf-2
 --------------------------------
 Symbolic Z-matrix:
 Charge = -1 Multiplicity = 1

 SCF Done:  E(RM062X) =  -310.255050538     A.U. after    1 cycles
 SCF Done:  E(RM062X) =  -310.255050538     A.U. after    4 cycles
 Optimization completed.
    -- Stationary point found.
 Normal termination of Gaussian 16 at Mon Jun  2 11:51:01 2025.

 ----------------------------------------------------------------------
 #N Geom=AllCheck Guess=TCheck SCRF=Check GenChk RM062X/6-311+G(d,p) Fr
 eq
 ----------------------------------------------------------------------

 Structure from the checkpoint file:  "3-5-diMe-ph-anion-opt-freq-thf-3.chk"
 --------------------------------
 3-5-diMe-ph-anion-opt-freq-thf-2
 --------------------------------
 Charge = -1 Multiplicity = 1

                          Input orientation:
 ---------------------------------------------------------------------
 Center     Atomic      Atomic             Coordinates (Angstroms)
 Number     Number       Type             X           Y           Z
 ---------------------------------------------------------------------
      1          6           0        6.308220    6.975730    5.197738
      2          6           0        5.152930    6.163379    5.243634
      3          1           0        5.202099    5.187521    5.734053
      4          6           0        3.905188    6.509482    4.702228
      5          6           0        3.778580    7.735773    4.047886
      6          6           0        4.875146    8.595978    3.948800
      7          6           0        6.090546    8.201422    4.525785
      8          1           0        6.914440    8.913395    4.430091
      9          1           0        2.822694    8.022889    3.612791
     10          6           0        4.744051    9.906794    3.209833
     11          1           0        5.577842   10.573286    3.441637
     12          1           0        4.738096    9.749616    2.126209
     13          1           0        3.814305   10.421211    3.467934
     14          6           0        2.710636    5.596527    4.847096
     15          1           0        3.022082    4.555315    4.958855
     16          1           0        2.121174    5.858465    5.732083
     17          1           0        2.046731    5.664429    3.981392
 ---------------------------------------------------------------------

 SCF Done:  E(RM062X) =  -310.255050538     A.U. after    1 cycles

 Alpha  occ. eigenvalues --  -10.50694 -10.50685 -10.50214 -10.50211 -10.49301
 Alpha  occ. eigenvalues --  -10.48035 -10.48003 -10.44537  -0.91220  -0.83931
 Alpha  occ. eigenvalues --   -0.79061  -0.74493  -0.72001  -0.60653  -0.60259
 Alpha  occ. eigenvalues --   -0.52284  -0.48508  -0.46205  -0.45071  -0.44793
 Alpha  occ. eigenvalues --   -0.42765  -0.41592  -0.39302  -0.39003  -0.36473
 Alpha  occ. eigenvalues --   -0.33471  -0.24742  -0.24504  -0.19175
 Alpha virt. eigenvalues --    0.03651   0.04802   0.05462   0.05761   0.05844
 Alpha virt. eigenvalues --    0.06871   0.07039   0.07472   0.08736   0.09425
 Alpha virt. eigenvalues --    0.09759   0.10683   0.10927   0.11791   0.13371

 Mulliken charges:
               1
     1  C   -0.960548
     2  C   -0.491238
     3  H    0.139973
     4  C    0.818144
     5  C   -0.665856
     6  C    0.738511
     7  C   -0.599706
     8  H    0.138812
     9  H    0.162347
    10  C   -0.680131
    11  H    0.171431
    12  H    0.194070
    13  H    0.170521
    14  C   -0.670941
    15  H    0.171127
    16  H    0.196142
    17  H    0.167341
 Sum of Mulliken charges =  -1.00000

 Dipole moment (field-independent basis, Debye):
    X=            -30.9663    Y=            -33.3140    Z=            -25.2500  Tot=             52.0221
 Quadrupole moment (field-independent basis, Debye-Ang):
   XX=           -255.7841   YY=           -284.2092   ZZ=           -189.0509
   XY=           -212.9467   XZ=           -163.6025   YZ=           -176.5702

  Exact polarizability:     169.011       4.941     152.567      18.381     -26.813     117.603
 Approx polarizability:     143.320       4.566     133.448      12.926     -20.234     106.167

                      1                      2                      3
                      A                      A                      A
 Frequencies --     37.0002                51.3744               193.4509
 Red. masses --      1.0416                 1.0212                 2.9697
 Frc consts  --      0.0008                 0.0016                 0.0655
 IR Inten    --      0.6725                 0.3506                 2.5259

                      4                      5                      6
                      A                      A                      A
 Frequencies --    218.0751               277.0151               407.3615
 Red. masses --      2.8851                 2.5286                 2.5756
 Frc consts  --      0.0808                 0.1143                 0.2518
 IR Inten    --      0.0606                 5.4785                 4.3445

                      7                      8                      9
                      A                      A                      A
 Frequencies --    447.5051               511.8310               526.9561
 Red. masses --      4.0269                 3.0736                 5.1517
 Frc consts  --      0.4751                 0.4744                 0.8429
 IR Inten    --      7.5392                 0.0372                 1.5501

                     10                     11                     12
                      A                      A                      A
 Frequencies --    539.0173               723.2342               726.5187
 Red. masses --      4.6287                 6.6885                 2.7112
 Frc consts  --      0.7923                 2.0613                 0.8432
 IR Inten    --      0.1865                 0.8438                26.0228

                     13                     14                     15
                      A                      A                      A
 Frequencies --    852.1033               896.9104               937.2555
 Red. masses --      1.2753                 1.3202                 3.1149
 Frc consts  --      0.5456                 0.6257                 1.6122
 IR Inten    --     34.7279                 0.6263                 0.8548

                     16                     17                     18
                      A                      A                      A
 Frequencies --    944.9440               992.1016              1004.4486
 Red. masses --      1.3444                 1.4105                 6.1131
 Frc consts  --      0.7073                 0.8180                 3.6338
 IR Inten    --      0.1915                 0.4882                 0.2074

                     19                     20                     21
                      A                      A                      A
 Frequencies --   1027.4632              1056.4412              1058.5395
 Red. masses --      1.5912                 1.5494                 1.5659
 Frc consts  --      0.9897                 1.0188                 1.0338
 IR Inten    --      0.4402                 7.5797                19.8501

                     22                     23                     24
                      A                      A                      A
 Frequencies --   1137.1529              1176.6068              1249.0972
 Red. masses --      2.1248                 1.5509                 5.2823
 Frc consts  --      1.6189                 1.2650                 4.8559
 IR Inten    --      8.9474                 3.9888                18.3473

                     25                     26                     27
                      A                      A                      A
 Frequencies --   1269.3983              1324.8594              1397.1492
 Red. masses --      2.3761                 1.2349                 1.5240
 Frc consts  --      2.2559                 1.2771                 1.7528
 IR Inten    --      0.6088                 5.8725                 0.4728

                     28                     29                     30
                      A                      A                      A
 Frequencies --   1403.0625              1405.1063              1453.8805
 Red. masses --      1.2946                 2.1455                 1.6964
 Frc consts  --      1.5016                 2.4958                 2.1127
 IR Inten    --      0.5855                 5.7775                 8.4857

                     31                     32                     33
                      A                      A                      A
 Frequencies --   1477.3033              1478.0135              1485.6514
 Red. masses --      1.0463                 1.0494                 1.0857
 Frc consts  --      1.3454                 1.3507                 1.4118
 IR Inten    --     19.1994                 1.5324                12.1663

                     34                     35                     36
                      A                      A                      A
 Frequencies --   1493.3272              1589.7021              1632.0192
 Red. masses --      1.4530                 5.6284                 5.4977
 Frc consts  --      1.9091                 8.3804                 8.6274
 IR Inten    --     20.0427                19.0687                23.8964

                     37                     38                     39
                      A                      A                      A
 Frequencies --   3045.8183              3046.7367              3082.2646
 Red. masses --      1.0380                 1.0381                 1.0865
 Frc consts  --      5.6737                 5.6777                 6.0816
 IR Inten    --     60.4817                40.4656               142.9493

                     40                     41                     42
                      A                      A                      A
 Frequencies --   3085.0328              3104.4768              3106.5112
 Red. masses --      1.0867                 1.0996                 1.0990
 Frc consts  --      6.0935                 6.2441                 6.2486
 IR Inten    --     45.9852                25.9916                29.1507

                     43                     44                     45
                      A                      A                      A
 Frequencies --   3129.4841              3130.1771              3151.5990
 Red. masses --      1.1027                 1.1020                 1.0902
 Frc consts  --      6.3627                 6.3616                 6.3802
 IR Inten    --     28.5934                32.0363                40.1232

 - Thermochemistry -
 -------------------
 Temperature   298.150 Kelvin.  Pressure   1.00000 Atm.
 Atom     1 has atomic number  6 and mass  12.00000

 Molecular mass:   105.07043 amu.
 Principal axes and moments of inertia in atomic units:
                           1         2         3
     Eigenvalues --   489.107611012.778141479.39853
           X            0.40202   0.87889  -0.25676
           Y            0.85765  -0.26325   0.44174
           Z           -0.32065   0.39780   0.85962
 This molecule is an asymmetric top.
 Rotational symmetry number  1.
 Warning -- assumption of classical behavior for rotation
           may cause significant error
 Rotational temperatures (Kelvin)      0.17709     0.08552     0.05855
 Rotational constants (GHZ):           3.68987     1.78197     1.21992
 Zero-point vibrational energy     372540.9 (Joules/Mol)
                                   89.03942 (Kcal/Mol)
 Warning -- explicit consideration of  10 degrees of freedom as
           vibrations may cause significant error
 Vibrational temperatures:     53.24    73.92   278.33   313.76   398.56
          (Kelvin)            586.10   643.86   736.41   758.17   775.53
                             1040.57  1045.30  1225.99  1290.45  1348.50
                             1359.56  1427.41  1445.18  1478.29  1519.98
                             1523.00  1636.11  1692.87  1797.17  1826.38
                             1906.18  2010.19  2018.69  2021.63  2091.81
                             2125.51  2126.53  2137.52  2148.56  2287.23
                             2348.11  4382.25  4383.57  4434.69  4438.67
                             4466.65  4469.58  4502.63  4503.63  4534.45

 Zero-point correction=                           0.141893 (Hartree/Particle)
 Thermal correction to Energy=                    0.149875
 Thermal correction to Enthalpy=                  0.150819
 Thermal correction to Gibbs Free Energy=         0.108426
 Sum of electronic and zero-point Energies=           -310.113157
 Sum of electronic and thermal Energies=              -310.105175
 Sum of electronic and thermal Enthalpies=            -310.104231
 Sum of electronic and thermal Free Energies=         -310.146624

                     E (Thermal)             CV                S
                      KCal/Mol        Cal/Mol-Kelvin    Cal/Mol-Kelvin
 Total                   94.048             28.740             89.224
 Electronic               0.000              0.000              0.000
 Translational            0.889              2.981             39.865
 Rotational               0.889              2.981             28.085
 Vibrational             92.271             22.778             21.274
 Vibration     1          0.594              1.982              5.414
 Vibration     2          0.596              1.977              4.764
 Vibration     3          0.635              1.849              2.195
 Vibration     4          0.646              1.814              1.975
 Vibration     5          0.678              1.716              1.552
 Vibration     6          0.772              1.454              0.936
 Vibration     7          0.807              1.366              0.803
 Vibration     8          0.867              1.224              0.629
 Vibration     9          0.882              1.190              0.594
 Vibration    10          0.894              1.164              0.567

 Optimization completed.
    -- Stationary point found.
 Normal termination of Gaussian 16 at Mon Jun  2 11:52:13 2025.
