 Gaussian 16, Revision C.01,
 Gaussian 16:  AS64L-G16RevC.01  3-Jul-2019

 ----------------------------------------------------------------------
 # opt=(calcfc,tight) freq 6-311+g(d,p) scrf=(smd,solvent=thf) nosymm s
 cf=(qc,fermi,xqc) geom=connectivity int=ultrafine m062x
 ----------------------------------------------------------------------

 --------------------
 3-cl-ph-opt-freq-thf
 --------------------
 Symbolic Z-matrix:
 Charge =  0 Multiplicity = 2

 SCF Done:  E(UM062X) =  -691.117527803     A.U. after   18 cycles
 SCF Done:  E(UM062X) =  -691.122278411     A.U. after   15 cycles
 SCF Done:  E(UM062X) =  -691.122300636     A.U. after   11 cycles
 SCF Done:  E(UM062X) =  -691.122300728     A.U. after    9 cycles
 Optimization completed.
    -- Stationary point found.
 Normal termination of Gaussian 16 at Fri May  9 08:02:40 2025.

 ----------------------------------------------------------------------
 #N Geom=AllCheck Guess=TCheck SCRF=Check GenChk UM062X/6-311+G(d,p) Fr
 eq
 ----------------------------------------------------------------------

 Structure from the checkpoint file:  "3-cl-ph-opt-freq-thf.chk"
 --------------------
 3-cl-ph-opt-freq-thf
 --------------------
 Charge =  0 Multiplicity = 2

                          Input orientation:
 ---------------------------------------------------------------------
 Center     Atomic      Atomic             Coordinates (Angstroms)
 Number     Number       Type             X           Y           Z
 ---------------------------------------------------------------------
      1          6           0        6.160597    7.017882    5.141019
      2          6           0        5.108829    6.152340    5.311261
      3          1           0        5.208893    5.213936    5.843815
      4          6           0        3.886236    6.544111    4.757677
      5          1           0        3.017354    5.903616    4.858469
      6          6           0        3.771301    7.752423    4.075168
      7          6           0        4.886477    8.572485    3.945948
      8          6           0        6.125354    8.221866    4.482829
      9          1           0        6.989893    8.866890    4.378278
     10          1           0        2.824424    8.055711    3.646631
     11         17           0        4.734275   10.088558    3.084341
 ---------------------------------------------------------------------

 SCF Done:  E(UM062X) =  -691.122300728     A.U. after    1 cycles

 Alpha  occ. eigenvalues -- -102.68241 -10.61963 -10.58119 -10.56538 -10.56249
 Alpha  occ. eigenvalues --  -10.55855 -10.55843  -9.82501  -7.55018  -7.54348
 Alpha  occ. eigenvalues --   -7.54335  -1.00902  -0.94941  -0.86308  -0.83861
 Alpha  occ. eigenvalues --   -0.70561  -0.68296  -0.60415  -0.55006  -0.53072
 Alpha  occ. eigenvalues --   -0.50939  -0.48153  -0.47236  -0.43624  -0.41243
 Alpha  occ. eigenvalues --   -0.38996  -0.33075  -0.31432  -0.31052
 Alpha virt. eigenvalues --    0.00170   0.00610   0.01885   0.02829   0.03861
 Alpha virt. eigenvalues --    0.04576   0.05927   0.06164   0.06689   0.07576
 Alpha virt. eigenvalues --    0.08842   0.09514   0.09581   0.10395   0.12573

  Beta  occ. eigenvalues -- -102.68225 -10.61866 -10.57145 -10.56548 -10.56166
  Beta  occ. eigenvalues --  -10.55884 -10.55852  -9.82495  -7.54984  -7.54338
  Beta  occ. eigenvalues --   -7.54326  -1.00459  -0.94255  -0.85377  -0.83194
  Beta  occ. eigenvalues --   -0.69868  -0.66708  -0.59648  -0.54216  -0.52353
  Beta  occ. eigenvalues --   -0.50500  -0.47740  -0.45739  -0.43065  -0.40721
  Beta  occ. eigenvalues --   -0.38727  -0.32205  -0.30814
  Beta virt. eigenvalues --   -0.05936   0.00129   0.01786   0.01869   0.02824
  Beta virt. eigenvalues --    0.03954   0.04688   0.06070   0.06372   0.06833
  Beta virt. eigenvalues --    0.08810   0.09027   0.09329   0.09580   0.10413

 Mulliken charges and spin densities:
               1          2
     1  C    0.024846   0.824116
     2  C   -0.380003   0.046889
     3  H    0.210332   0.017270
     4  C   -0.365987   0.025349
     5  H    0.206283   0.006439
     6  C   -0.460779  -0.027346
     7  C    0.627524   0.035252
     8  C   -0.541364   0.036918
     9  H    0.226949   0.019069
    10  H    0.218742   0.002835
    11  Cl   0.233457   0.013208
 Sum of Mulliken charges =   0.00000   1.00000

 Dipole moment (field-independent basis, Debye):
    X=             -0.8419    Y=             -1.7868    Z=              0.7260  Tot=              2.1044
 Quadrupole moment (field-independent basis, Debye-Ang):
   XX=            -51.8368   YY=            -74.8166   ZZ=            -44.1662
   XY=            -11.9930   XZ=              0.2815   YZ=             -3.5985

  Exact polarizability:     104.520       5.465     119.240      10.137     -31.511      77.712
 Approx polarizability:     102.949       5.241     112.255       9.894     -27.951      75.490

                      1                      2                      3
                      A                      A                      A
 Frequencies --    186.1789               304.5786               417.9336
 Red. masses --      5.1031                 6.1949                11.1514
 Frc consts  --      0.1042                 0.3386                 1.1476
 IR Inten    --      0.1411                 0.9006                 9.2867

                      4                      5                      6
                      A                      A                      A
 Frequencies --    419.7170               495.9948               613.4806
 Red. masses --      3.1028                 4.7487                 7.1194
 Frc consts  --      0.3221                 0.6883                 1.5787
 IR Inten    --      7.3407                 1.1539                 3.9989

                      7                      8                      9
                      A                      A                      A
 Frequencies --    670.4443               703.7918               778.1639
 Red. masses --      2.3210                 8.4987                 1.3908
 Frc consts  --      0.6147                 2.4802                 0.4962
 IR Inten    --     42.1950                29.8819                87.2906

                     10                     11                     12
                      A                      A                      A
 Frequencies --    865.3672               915.0624               985.7077
 Red. masses --      1.4270                 1.3667                 6.3254
 Frc consts  --      0.6296                 0.6743                 3.6210
 IR Inten    --     18.3184                 2.6271                32.8136

                     13                     14                     15
                      A                      A                      A
 Frequencies --   1001.9229              1061.5907              1087.4340
 Red. masses --      1.3383                 2.8903                 1.6924
 Frc consts  --      0.7916                 1.9192                 1.1791
 IR Inten    --      0.4849                23.1455                26.5930

                     16                     17                     18
                      A                      A                      A
 Frequencies --   1115.4302              1166.7934              1275.0626
 Red. masses --      2.0234                 1.1201                 1.4151
 Frc consts  --      1.4833                 0.8984                 1.3555
 IR Inten    --     43.1163                 1.4718                 3.4876

                     19                     20                     21
                      A                      A                      A
 Frequencies --   1297.1307              1439.5405              1472.1280
 Red. masses --      4.3856                 2.7629                 2.2847
 Frc consts  --      4.3476                 3.3734                 2.9173
 IR Inten    --      1.5603                14.6639                76.2632

                     22                     23                     24
                      A                      A                      A
 Frequencies --   1595.3028              1656.5403              3207.2366
 Red. masses --      6.6867                 7.6590                 1.0876
 Frc consts  --     10.0264                12.3831                 6.5917
 IR Inten    --     21.6925                52.0404                 1.4786

                     25                     26                     27
                      A                      A                      A
 Frequencies --   3217.3157              3219.8003              3235.3591
 Red. masses --      1.0924                 1.0949                 1.0959
 Frc consts  --      6.6624                 6.6876                 6.7585
 IR Inten    --      2.4500                 2.9873                 0.0714

 - Thermochemistry -
 -------------------
 Temperature   298.150 Kelvin.  Pressure   1.00000 Atm.
 Atom     1 has atomic number  6 and mass  12.00000

 Molecular mass:   111.00015 amu.
 Principal axes and moments of inertia in atomic units:
                           1         2         3
     Eigenvalues --   295.027571132.726801427.75400
           X           -0.05608   0.96917  -0.23993
           Y            0.87217   0.16452   0.46072
           Z           -0.48599   0.18343   0.85450
 This molecule is an asymmetric top.
 Rotational symmetry number  1.
 Rotational temperatures (Kelvin)      0.29358     0.07646     0.06066
 Rotational constants (GHZ):           6.11720     1.59327     1.26404
 Zero-point vibrational energy     205787.7 (Joules/Mol)
                                   49.18443 (Kcal/Mol)
 Warning -- explicit consideration of   6 degrees of freedom as
           vibrations may cause significant error
 Vibrational temperatures:    267.87   438.22   601.31   603.88   713.63
          (Kelvin)            882.66   964.62  1012.60  1119.60  1245.07
                             1316.57  1418.21  1441.54  1527.39  1564.58
                             1604.86  1678.76  1834.53  1866.28  2071.18
                             2118.06  2295.28  2383.39  4614.50  4629.00
                             4632.57  4654.96

 Zero-point correction=                           0.078380 (Hartree/Particle)
 Thermal correction to Energy=                    0.083821
 Thermal correction to Enthalpy=                  0.084765
 Thermal correction to Gibbs Free Energy=         0.048034
 Sum of electronic and zero-point Energies=           -691.043920
 Sum of electronic and thermal Energies=              -691.038479
 Sum of electronic and thermal Enthalpies=            -691.037535
 Sum of electronic and thermal Free Energies=         -691.074267

                     E (Thermal)             CV                S
                      KCal/Mol        Cal/Mol-Kelvin    Cal/Mol-Kelvin
 Total                   52.599             20.481             77.308
 Electronic               0.000              0.000              1.377
 Translational            0.889              2.981             40.029
 Rotational               0.889              2.981             27.658
 Vibrational             50.821             14.520              8.243
 Vibration     1          0.632              1.859              2.266
 Vibration     2          0.695              1.665              1.392
 Vibration     3          0.781              1.431              0.899
 Vibration     4          0.782              1.427              0.893
 Vibration     5          0.852              1.259              0.668
 Vibration     6          0.973              1.003              0.427

 Optimization completed.
    -- Stationary point found.
 Normal termination of Gaussian 16 at Fri May  9 08:03:36 2025.
