 Gaussian 16, Revision C.01,
 Gaussian 16:  AS64L-G16RevC.01  3-Jul-2019

 ----------------------------------------------------------------------
 # opt=(calcfc,tight) freq 6-311+g(d,p) scrf=(smd,solvent=thf) nosymm s
 cf=(qc,fermi,xqc) geom=connectivity int=ultrafine m062x
 ----------------------------------------------------------------------

 ------------------------
 3-cl-phboh2-opt-freq-thf
 ------------------------
 Symbolic Z-matrix:
 Charge =  0 Multiplicity = 1

 SCF Done:  E(RM062X) =  -867.839957552     A.U. after   14 cycles
 SCF Done:  E(RM062X) =  -867.840028042     A.U. after   12 cycles
 SCF Done:  E(RM062X) =  -867.840028208     A.U. after    9 cycles
 SCF Done:  E(RM062X) =  -867.840028234     A.U. after    8 cycles
 Optimization completed.
    -- Stationary point found.
 Normal termination of Gaussian 16 at Sat Apr 26 20:09:48 2025.

 ----------------------------------------------------------------------
 #N Geom=AllCheck Guess=TCheck SCRF=Check GenChk RM062X/6-311+G(d,p) Fr
 eq
 ----------------------------------------------------------------------

 Structure from the checkpoint file:  "3-cl-phboh2-opt-freq-thf.chk"
 ------------------------
 3-cl-phboh2-opt-freq-thf
 ------------------------
 Charge =  0 Multiplicity = 1

                          Input orientation:
 ---------------------------------------------------------------------
 Center     Atomic      Atomic             Coordinates (Angstroms)
 Number     Number       Type             X           Y           Z
 ---------------------------------------------------------------------
      1          8           0        8.678927    7.475704    5.568499
      2          1           0        9.499242    7.168765    5.971823
      3          6           0        6.239962    6.997844    5.175441
      4          5           0        7.641706    6.616129    5.776934
      5          8           0        7.882893    5.479327    6.494316
      6          1           0        7.116724    4.911689    6.621373
      7          6           0        5.114463    6.176346    5.300458
      8          1           0        5.173912    5.227802    5.825968
      9          6           0        3.889558    6.548700    4.756222
     10          1           0        3.025787    5.902789    4.860475
     11          6           0        3.763635    7.753373    4.072707
     12          6           0        4.882274    8.567042    3.947875
     13          6           0        6.109063    8.208960    4.484999
     14          1           0        6.963685    8.865565    4.370621
     15          1           0        2.815764    8.055662    3.644441
     16         17           0        4.735530   10.085734    3.086230
 ---------------------------------------------------------------------

 SCF Done:  E(RM062X) =  -867.840028234     A.U. after    1 cycles

 Alpha  occ. eigenvalues -- -102.67895 -19.63933 -19.63367 -10.61098 -10.56009
 Alpha  occ. eigenvalues --  -10.55766 -10.55570 -10.55449 -10.54157  -9.82166
 Alpha  occ. eigenvalues --   -7.54666  -7.54013  -7.54002  -7.08853  -1.16966
 Alpha  occ. eigenvalues --   -1.13308  -1.00136  -0.94071  -0.85857  -0.83263
 Alpha  occ. eigenvalues --   -0.70801  -0.69255  -0.65232  -0.62810  -0.59562
 Alpha  occ. eigenvalues --   -0.54552  -0.53193  -0.51053  -0.49907  -0.48676
 Alpha  occ. eigenvalues --   -0.46759  -0.45927  -0.45725  -0.41873  -0.40756
 Alpha  occ. eigenvalues --   -0.40464  -0.40057  -0.37714  -0.32263  -0.30665
 Alpha virt. eigenvalues --   -0.01326  -0.00057   0.00698   0.01954   0.02127
 Alpha virt. eigenvalues --    0.03107   0.03538   0.04076   0.05486   0.06143
 Alpha virt. eigenvalues --    0.07079   0.07924   0.08285   0.08862   0.10286

 Mulliken charges:
               1
     1  O   -0.399243
     2  H    0.329629
     3  C   -0.794484
     4  B    0.510588
     5  O   -0.392736
     6  H    0.284102
     7  C   -0.126623
     8  H    0.176157
     9  C   -0.300725
    10  H    0.198430
    11  C   -0.518342
    12  C    0.879716
    13  C   -0.547728
    14  H    0.217683
    15  H    0.213099
    16  Cl   0.270476
 Sum of Mulliken charges =   0.00000

 Dipole moment (field-independent basis, Debye):
    X=             -0.9949    Y=             -3.3986    Z=              1.6326  Tot=              3.8994
 Quadrupole moment (field-independent basis, Debye-Ang):
   XX=            -68.9353   YY=           -114.6284   ZZ=            -51.5339
   XY=            -23.3799   XZ=              5.8216   YZ=             -5.6267

  Exact polarizability:     140.400       1.757     139.597      18.182     -36.184      96.807
 Approx polarizability:     132.876       4.111     133.078      14.204     -30.857      94.849

                      1                      2                      3
                      A                      A                      A
 Frequencies --     32.4224               129.6762               132.6521
 Red. masses --      5.8595                 5.0744                 8.1405
 Frc consts  --      0.0036                 0.0503                 0.0844
 IR Inten    --      2.9161                 0.4923                 0.9622

                      4                      5                      6
                      A                      A                      A
 Frequencies --    194.0587               281.4864               335.5762
 Red. masses --      4.6176                 6.4383                 6.5126
 Frc consts  --      0.1025                 0.3006                 0.4321
 IR Inten    --      0.7259                 5.7853                11.6278

                      7                      8                      9
                      A                      A                      A
 Frequencies --    401.7826               415.5744               450.2489
 Red. masses --      7.7220                 2.8144                 1.2732
 Frc consts  --      0.7345                 0.2864                 0.1521
 IR Inten    --      8.0380                11.6429               216.4724

                     10                     11                     12
                      A                      A                      A
 Frequencies --    462.0225               482.7493               534.0494
 Red. masses --      5.8205                 2.2052                 3.8293
 Frc consts  --      0.7320                 0.3028                 0.6435
 IR Inten    --      3.8305                21.4771                47.4500

                     13                     14                     15
                      A                      A                      A
 Frequencies --    556.4160               671.6671               680.7269
 Red. masses --      1.4521                 5.8954                 6.7971
 Frc consts  --      0.2649                 1.5670                 1.8557
 IR Inten    --     48.4858                41.8233                11.7261

                     16                     17                     18
                      A                      A                      A
 Frequencies --    716.5451               806.2098               812.6318
 Red. masses --      2.1293                 6.7988                 1.5837
 Frc consts  --      0.6441                 2.6036                 0.6162
 IR Inten    --    112.6957                71.5533                36.6131

                     19                     20                     21
                      A                      A                      A
 Frequencies --    937.3872               945.2858               990.5409
 Red. masses --      1.4212                 1.3881                 1.4771
 Frc consts  --      0.7358                 0.7308                 0.8539
 IR Inten    --      7.4546                 2.6731               206.7971

                     22                     23                     24
                      A                      A                      A
 Frequencies --   1013.6630              1014.2575              1030.1665
 Red. masses --      2.6401                 1.7303                 1.4745
 Frc consts  --      1.5983                 1.0487                 0.9219
 IR Inten    --      3.4969                 3.0592               171.0315

                     25                     26                     27
                      A                      A                      A
 Frequencies --   1110.2634              1120.4064              1153.9327
 Red. masses --      2.4781                 1.6687                 2.0235
 Frc consts  --      1.7998                 1.2342                 1.5875
 IR Inten    --     11.1875                39.1560                 5.9408

                     28                     29                     30
                      A                      A                      A
 Frequencies --   1195.5149              1286.9913              1333.3106
 Red. masses --      1.1844                 2.9546                 1.7544
 Frc consts  --      0.9973                 2.8833                 1.8375
 IR Inten    --      5.6209                 9.2030                62.0621

                     31                     32                     33
                      A                      A                      A
 Frequencies --   1367.2764              1399.9086              1456.8034
 Red. masses --      3.7157                 5.6109                 3.4067
 Frc consts  --      4.0927                 6.4786                 4.2597
 IR Inten    --    672.1662               313.9231               258.2436

                     34                     35                     36
                      A                      A                      A
 Frequencies --   1521.7029              1633.2611              1666.7200
 Red. masses --      2.6034                 6.0585                 6.3806
 Frc consts  --      3.5518                 9.5219                10.4432
 IR Inten    --     21.4111                22.7335                13.4568

                     37                     38                     39
                      A                      A                      A
 Frequencies --   3186.5085              3218.2324              3221.3164
 Red. masses --      1.0896                 1.0914                 1.0927
 Frc consts  --      6.5185                 6.6597                 6.6809
 IR Inten    --     12.2670                 4.1098                 2.1503

                     40                     41                     42
                      A                      A                      A
 Frequencies --   3232.3161              3852.1677              3882.9467
 Red. masses --      1.0971                 1.0652                 1.0660
 Frc consts  --      6.7532                 9.3131                 9.4700
 IR Inten    --      0.9449               198.4977               135.7343

 - Thermochemistry -
 -------------------
 Temperature   298.150 Kelvin.  Pressure   1.00000 Atm.
 Atom     1 has atomic number  8 and mass  15.99491

 Molecular mass:   156.01494 amu.
 Principal axes and moments of inertia in atomic units:
                           1         2         3
     Eigenvalues --   847.416362696.502553543.70666
           X            0.62415   0.74432  -0.23755
           Y           -0.59997   0.65136   0.46451
           Z            0.50047  -0.14740   0.85311
 This molecule is an asymmetric top.
 Rotational symmetry number  1.
 Warning -- assumption of classical behavior for rotation
           may cause significant error
 Rotational temperatures (Kelvin)      0.10221     0.03212     0.02444
 Rotational constants (GHZ):           2.12970     0.66929     0.50928
 Zero-point vibrational energy     304254.5 (Joules/Mol)
                                   72.71856 (Kcal/Mol)
 Warning -- explicit consideration of  13 degrees of freedom as
           vibrations may cause significant error
 Vibrational temperatures:     46.65   186.58   190.86   279.21   405.00
          (Kelvin)            482.82   578.08   597.92   647.81   664.75
                              694.57   768.38   800.56   966.38   979.41
                             1030.95  1159.96  1169.20  1348.69  1360.06
                             1425.17  1458.43  1459.29  1482.18  1597.42
                             1612.01  1660.25  1720.08  1851.69  1918.34
                             1967.21  2014.16  2096.02  2189.39  2349.90
                             2398.04  4584.68  4630.32  4634.76  4650.58
                             5542.41  5586.69

 Zero-point correction=                           0.115884 (Hartree/Particle)
 Thermal correction to Energy=                    0.124950
 Thermal correction to Enthalpy=                  0.125894
 Thermal correction to Gibbs Free Energy=         0.080512
 Sum of electronic and zero-point Energies=           -867.724144
 Sum of electronic and thermal Energies=              -867.715079
 Sum of electronic and thermal Enthalpies=            -867.714134
 Sum of electronic and thermal Free Energies=         -867.759517

                     E (Thermal)             CV                S
                      KCal/Mol        Cal/Mol-Kelvin    Cal/Mol-Kelvin
 Total                   78.407             34.040             95.515
 Electronic               0.000              0.000              0.000
 Translational            0.889              2.981             41.044
 Rotational               0.889              2.981             30.472
 Vibrational             76.630             28.078             24.000
 Vibration     1          0.594              1.983              5.675
 Vibration     2          0.612              1.924              2.951
 Vibration     3          0.613              1.921              2.907
 Vibration     4          0.635              1.848              2.189
 Vibration     5          0.681              1.708              1.525
 Vibration     6          0.717              1.604              1.233
 Vibration     7          0.767              1.466              0.956
 Vibration     8          0.779              1.436              0.907
 Vibration     9          0.809              1.360              0.795
 Vibration    10          0.820              1.334              0.760
 Vibration    11          0.839              1.288              0.703
 Vibration    12          0.889              1.175              0.578
 Vibration    13          0.912              1.126              0.531

 Optimization completed.
    -- Stationary point found.
 Normal termination of Gaussian 16 at Sat Apr 26 20:11:13 2025.
