 Gaussian 16, Revision C.01,
 Gaussian 16:  AS64L-G16RevC.01  3-Jul-2019

 ----------------------------------------------------------------------
 # opt=(calcfc,tight) freq 6-311+g(d,p) scrf=(smd,solvent=thf) nosymm s
 cf=(qc,fermi,xqc) geom=connectivity int=ultrafine m062x
 ----------------------------------------------------------------------

 --------------------------
 3-cl-ph-anion-opt-freq-thf
 --------------------------
 Symbolic Z-matrix:
 Charge = -1 Multiplicity = 1

 SCF Done:  E(RM062X) =  -691.239425237     A.U. after   17 cycles
 SCF Done:  E(RM062X) =  -691.252307253     A.U. after   14 cycles
 SCF Done:  E(RM062X) =  -691.252691880     A.U. after   13 cycles
 SCF Done:  E(RM062X) =  -691.252694202     A.U. after   11 cycles
 SCF Done:  E(RM062X) =  -691.252694221     A.U. after    9 cycles
 SCF Done:  E(RM062X) =  -691.252694224     A.U. after    7 cycles
 Optimization completed.
    -- Stationary point found.
 Normal termination of Gaussian 16 at Fri May 30 01:15:42 2025.

 ----------------------------------------------------------------------
 #N Geom=AllCheck Guess=TCheck SCRF=Check GenChk RM062X/6-311+G(d,p) Fr
 eq
 ----------------------------------------------------------------------

 Structure from the checkpoint file:  "3-cl-ph-anion-opt-freq-thf.chk"
 --------------------------
 3-cl-ph-anion-opt-freq-thf
 --------------------------
 Charge = -1 Multiplicity = 1

                          Input orientation:
 ---------------------------------------------------------------------
 Center     Atomic      Atomic             Coordinates (Angstroms)
 Number     Number       Type             X           Y           Z
 ---------------------------------------------------------------------
      1          6           0        6.299751    6.973834    5.202516
      2          6           0        5.124592    6.191245    5.294684
      3          1           0        5.161950    5.235760    5.818980
      4          6           0        3.888032    6.552975    4.753808
      5          1           0        3.023146    5.903195    4.861591
      6          6           0        3.748674    7.757469    4.065711
      7          6           0        4.880463    8.551211    3.956364
      8          6           0        6.109445    8.185042    4.498709
      9          1           0        6.935738    8.880376    4.355690
     10          1           0        2.804018    8.065224    3.633905
     11         17           0        4.737825   10.093485    3.083478
 ---------------------------------------------------------------------

 SCF Done:  E(RM062X) =  -691.252694224     A.U. after    1 cycles

 Alpha  occ. eigenvalues -- -102.64809 -10.56820 -10.51500 -10.51158 -10.50086
 Alpha  occ. eigenvalues --  -10.49425 -10.45812  -9.79076  -7.51549  -7.50941
 Alpha  occ. eigenvalues --   -7.50937  -0.95519  -0.89002  -0.79561  -0.77787
 Alpha  occ. eigenvalues --   -0.64427  -0.62031  -0.54848  -0.48063  -0.47741
 Alpha  occ. eigenvalues --   -0.44751  -0.43055  -0.41678  -0.36434  -0.35713
 Alpha  occ. eigenvalues --   -0.35415  -0.26841  -0.25782  -0.20242
 Alpha virt. eigenvalues --    0.03687   0.04474   0.04795   0.05397   0.06115
 Alpha virt. eigenvalues --    0.06559   0.08079   0.08421   0.08788   0.10346
 Alpha virt. eigenvalues --    0.10770   0.11313   0.11837   0.12176   0.14728

 Mulliken charges:
               1
     1  C   -1.087614
     2  C   -0.078256
     3  H    0.153024
     4  C   -0.396573
     5  H    0.170421
     6  C   -0.541970
     7  C    0.823289
     8  C   -0.517822
     9  H    0.171733
    10  H    0.193662
    11  Cl   0.110105
 Sum of Mulliken charges =  -1.00000

 Dipole moment (field-independent basis, Debye):
    X=            -30.1841    Y=            -36.0552    Z=            -23.5905  Tot=             52.6077
 Quadrupole moment (field-independent basis, Debye-Ang):
   XX=           -243.9310   YY=           -330.3498   ZZ=           -174.5949
   XY=           -219.9653   XZ=           -151.3989   YZ=           -173.0683

  Exact polarizability:     138.955      -1.829     138.395      18.535     -33.882      99.752
 Approx polarizability:     122.568       1.568     125.206      13.352     -28.228      90.908

                      1                      2                      3
                      A                      A                      A
 Frequencies --    173.7775               296.4279               394.1391
 Red. masses --      4.7420                 6.3138                 3.2345
 Frc consts  --      0.0844                 0.3269                 0.2960
 IR Inten    --      0.4018                 5.4351                17.5112

                      4                      5                      6
                      A                      A                      A
 Frequencies --    407.3711               463.6714               606.9312
 Red. masses --     12.1254                 4.2207                 7.5198
 Frc consts  --      1.1856                 0.5346                 1.6321
 IR Inten    --     10.3176                 0.9963                 6.5127

                      7                      8                      9
                      A                      A                      A
 Frequencies --    699.4783               719.7471               784.5949
 Red. masses --      8.1385                 2.6017                 1.4605
 Frc consts  --      2.3461                 0.7941                 0.5297
 IR Inten    --     54.5338                27.5036                67.9328

                     10                     11                     12
                      A                      A                      A
 Frequencies --    888.3692               934.3150               988.5260
 Red. masses --      1.3091                 1.3545                 7.5758
 Frc consts  --      0.6087                 0.6967                 4.3617
 IR Inten    --      0.3756                 3.6464                74.8153

                     13                     14                     15
                      A                      A                      A
 Frequencies --   1002.6486              1019.9251              1094.8742
 Red. masses --      1.3533                 4.6675                 2.0574
 Frc consts  --      0.8016                 2.8607                 1.4531
 IR Inten    --      0.2146                15.6558                51.7683

                     16                     17                     18
                      A                      A                      A
 Frequencies --   1111.3747              1182.3081              1246.2529
 Red. masses --      1.5902                 1.2075                 6.1312
 Frc consts  --      1.1572                 0.9945                 5.6105
 IR Inten    --     10.7505                 1.6624                42.3817

                     19                     20                     21
                      A                      A                      A
 Frequencies --   1324.4821              1400.8759              1464.3290
 Red. masses --      1.2643                 2.4904                 1.9563
 Frc consts  --      1.3068                 2.8795                 2.4715
 IR Inten    --      4.2028                13.4833                40.4122

                     22                     23                     24
                      A                      A                      A
 Frequencies --   1582.6953              1605.5824              3116.5261
 Red. masses --      5.4127                 6.2090                 1.0866
 Frc consts  --      7.9884                 9.4305                 6.2179
 IR Inten    --     48.9568                10.7876                62.9843

                     25                     26                     27
                      A                      A                      A
 Frequencies --   3130.9195              3172.7668              3220.3289
 Red. masses --      1.0888                 1.0913                 1.0946
 Frc consts  --      6.2884                 6.4725                 6.6882
 IR Inten    --     39.6570                48.7898                 5.3362

 - Thermochemistry -
 -------------------
 Temperature   298.150 Kelvin.  Pressure   1.00000 Atm.
 Atom     1 has atomic number  6 and mass  12.00000

 Molecular mass:   111.00015 amu.
 Principal axes and moments of inertia in atomic units:
                           1         2         3
     Eigenvalues --   309.465801135.576101445.04151
           X           -0.07597   0.96785  -0.23979
           Y            0.86871   0.18229   0.46056
           Z           -0.48946   0.17332   0.85463
 This molecule is an asymmetric top.
 Rotational symmetry number  1.
 Rotational temperatures (Kelvin)      0.27988     0.07627     0.05994
 Rotational constants (GHZ):           5.83180     1.58927     1.24892
 Zero-point vibrational energy     203564.0 (Joules/Mol)
                                   48.65296 (Kcal/Mol)
 Warning -- explicit consideration of   6 degrees of freedom as
           vibrations may cause significant error
 Vibrational temperatures:    250.03   426.49   567.08   586.12   667.12
          (Kelvin)            873.24  1006.39  1035.56  1128.86  1278.17
                             1344.27  1422.27  1442.59  1467.44  1575.28
                             1599.02  1701.08  1793.08  1905.63  2015.55
                             2106.84  2277.15  2310.08  4483.99  4504.69
                             4564.90  4633.34

 Zero-point correction=                           0.077533 (Hartree/Particle)
 Thermal correction to Energy=                    0.083044
 Thermal correction to Enthalpy=                  0.083988
 Thermal correction to Gibbs Free Energy=         0.047725
 Sum of electronic and zero-point Energies=           -691.175161
 Sum of electronic and thermal Energies=              -691.169650
 Sum of electronic and thermal Enthalpies=            -691.168706
 Sum of electronic and thermal Free Energies=         -691.204969

                     E (Thermal)             CV                S
                      KCal/Mol        Cal/Mol-Kelvin    Cal/Mol-Kelvin
 Total                   52.111             20.574             76.324
 Electronic               0.000              0.000              0.000
 Translational            0.889              2.981             40.029
 Rotational               0.889              2.981             27.720
 Vibrational             50.334             14.612              8.574
 Vibration     1          0.627              1.875              2.394
 Vibration     2          0.690              1.680              1.437
 Vibration     3          0.761              1.483              0.984
 Vibration     4          0.772              1.454              0.936
 Vibration     5          0.821              1.331              0.755
 Vibration     6          0.966              1.017              0.438

 Optimization completed.
    -- Stationary point found.
 Normal termination of Gaussian 16 at Fri May 30 01:16:17 2025.
