 Gaussian 16, Revision C.01,
 Gaussian 16:  AS64L-G16RevC.01  3-Jul-2019

 ----------------------------------------------------------------------
 # opt=(calcfc,tight) freq 6-311+g(d,p) scrf=(smd,solvent=thf) nosymm s
 cf=(qc,fermi,xqc) geom=connectivity int=ultrafine m062x
 ----------------------------------------------------------------------

 ---------------------------
 4-OMe-ph-anion-opt-freq-thf
 ---------------------------
 Symbolic Z-matrix:
 Charge = -1 Multiplicity = 1

 SCF Done:  E(RM062X) =  -346.141850418     A.U. after   17 cycles
 SCF Done:  E(RM062X) =  -346.155178971     A.U. after   14 cycles
 SCF Done:  E(RM062X) =  -346.155467419     A.U. after   13 cycles
 SCF Done:  E(RM062X) =  -346.155469119     A.U. after   10 cycles
 SCF Done:  E(RM062X) =  -346.155469150     A.U. after    8 cycles
 SCF Done:  E(RM062X) =  -346.155469154     A.U. after    7 cycles
 SCF Done:  E(RM062X) =  -346.155469154     A.U. after    5 cycles
 Optimization completed.
    -- Stationary point found.
 Normal termination of Gaussian 16 at Tue May 27 08:11:12 2025.

 ----------------------------------------------------------------------
 #N Geom=AllCheck Guess=TCheck SCRF=Check GenChk RM062X/6-311+G(d,p) Fr
 eq
 ----------------------------------------------------------------------

 Structure from the checkpoint file:  "4-OMe-ph-anion-opt-freq-thf.chk"
 ---------------------------
 4-OMe-ph-anion-opt-freq-thf
 ---------------------------
 Charge = -1 Multiplicity = 1

                          Input orientation:
 ---------------------------------------------------------------------
 Center     Atomic      Atomic             Coordinates (Angstroms)
 Number     Number       Type             X           Y           Z
 ---------------------------------------------------------------------
      1          6           0        6.323351    6.863408    5.219930
      2          6           0        5.167189    6.094619    5.506519
      3          1           0        5.210718    5.332983    6.287221
      4          6           0        3.937034    6.227109    4.859730
      5          1           0        3.083837    5.607057    5.122332
      6          6           0        3.784235    7.174320    3.846445
      7          6           0        4.873282    7.971078    3.505419
      8          1           0        4.795223    8.718632    2.723495
      9          6           0        6.090589    7.796173    4.189914
     10          1           0        6.900342    8.454729    3.869984
     11          8           0        2.547705    7.246304    3.255527
     12          6           0        2.383159    8.192037    2.219805
     13          1           0        1.353050    8.096640    1.878412
     14          1           0        2.549257    9.213358    2.578405
     15          1           0        3.059300    7.990982    1.382085
 ---------------------------------------------------------------------

 SCF Done:  E(RM062X) =  -346.155469154     A.U. after    1 cycles

 Alpha  occ. eigenvalues --  -19.62369 -10.56251 -10.56163 -10.50002 -10.49726
 Alpha  occ. eigenvalues --  -10.49060 -10.49003 -10.44303  -1.16112  -0.90484
 Alpha  occ. eigenvalues --   -0.80681  -0.79087  -0.73932  -0.64195  -0.61791
 Alpha  occ. eigenvalues --   -0.57396  -0.52136  -0.51143  -0.47888  -0.45662
 Alpha  occ. eigenvalues --   -0.43536  -0.43333  -0.41212  -0.38743  -0.34879
 Alpha  occ. eigenvalues --   -0.33499  -0.26627  -0.22972  -0.19488
 Alpha virt. eigenvalues --    0.03360   0.04750   0.05223   0.05488   0.06535
 Alpha virt. eigenvalues --    0.06645   0.07920   0.07951   0.08305   0.10255
 Alpha virt. eigenvalues --    0.10403   0.10911   0.11658   0.12653   0.14458

 Mulliken charges:
               1
     1  C   -1.070313
     2  C   -0.042835
     3  H    0.148035
     4  C   -0.204536
     5  H    0.158962
     6  C   -0.404091
     7  C    0.362018
     8  H    0.166196
     9  C   -0.254141
    10  H    0.146186
    11  O   -0.187903
    12  C   -0.342169
    13  H    0.182227
    14  H    0.171141
    15  H    0.171224
 Sum of Mulliken charges =  -1.00000

 Dipole moment (field-independent basis, Debye):
    X=            -30.2656    Y=            -31.7586    Z=            -26.2637  Tot=             51.1312
 Quadrupole moment (field-independent basis, Debye-Ang):
   XX=           -250.3284   YY=           -260.3432   ZZ=           -192.2041
   XY=           -202.8251   XZ=           -164.2956   YZ=           -180.1863

  Exact polarizability:     155.323       4.041     116.831      24.586     -27.956     125.685
 Approx polarizability:     133.955       8.260     107.902      13.865     -23.414     110.348

                      1                      2                      3
                      A                      A                      A
 Frequencies --     86.6982               218.3073               273.1858
 Red. masses --      3.2785                 2.4488                 3.1829
 Frc consts  --      0.0145                 0.0688                 0.1400
 IR Inten    --      0.1678                20.4452                 5.9099

                      4                      5                      6
                      A                      A                      A
 Frequencies --    294.0901               386.9313               446.5580
 Red. masses --      1.4376                 2.6535                 4.8967
 Frc consts  --      0.0733                 0.2341                 0.5753
 IR Inten    --     10.9113                 0.2099                 1.8211

                      7                      8                      9
                      A                      A                      A
 Frequencies --    517.9711               557.0076               641.8088
 Red. masses --      2.8833                 5.1532                 7.1144
 Frc consts  --      0.4558                 0.9420                 1.7266
 IR Inten    --     35.5850                 6.3161                 0.1483

                     10                     11                     12
                      A                      A                      A
 Frequencies --    717.6739               795.4144               813.6739
 Red. masses --      3.0527                 5.5175                 1.6861
 Frc consts  --      0.9264                 2.0567                 0.6577
 IR Inten    --      3.3847                33.7153                70.6650

                     13                     14                     15
                      A                      A                      A
 Frequencies --    843.9176               952.9411               988.8354
 Red. masses --      1.2746                 1.2905                 3.3219
 Frc consts  --      0.5349                 0.6904                 1.9138
 IR Inten    --      2.1967                 4.0898                 1.9636

                     16                     17                     18
                      A                      A                      A
 Frequencies --    989.5769              1039.7461              1072.2040
 Red. masses --      1.8515                 2.7654                 3.8748
 Frc consts  --      1.0683                 1.7615                 2.6246
 IR Inten    --      0.6432                 9.5436               105.6856

                     19                     20                     21
                      A                      A                      A
 Frequencies --   1098.2035              1183.5377              1200.5164
 Red. masses --      1.5182                 1.2808                 1.2449
 Frc consts  --      1.0788                 1.0570                 1.0571
 IR Inten    --     10.1878                 1.5468                43.9826

                     22                     23                     24
                      A                      A                      A
 Frequencies --   1206.8564              1239.4775              1290.6931
 Red. masses --      1.5262                 5.6023                 3.2866
 Frc consts  --      1.3097                 5.0710                 3.2259
 IR Inten    --     30.0209                81.6997               335.2544

                     25                     26                     27
                      A                      A                      A
 Frequencies --   1336.0491              1397.1005              1480.7827
 Red. masses --      1.3116                 2.4502                 1.2684
 Frc consts  --      1.3794                 2.8178                 1.6387
 IR Inten    --     10.1259                 5.0534                23.3911

                     28                     29                     30
                      A                      A                      A
 Frequencies --   1495.7515              1502.2336              1508.0690
 Red. masses --      1.0434                 1.8196                 1.0832
 Frc consts  --      1.3753                 2.4193                 1.4515
 IR Inten    --     13.1698                58.4947                16.6808

                     31                     32                     33
                      A                      A                      A
 Frequencies --   1609.9681              1620.7236              3037.9536
 Red. masses --      6.5136                 5.4817                 1.0342
 Frc consts  --      9.9474                 8.4837                 5.6237
 IR Inten    --     34.5454               162.5412                66.7057

                     34                     35                     36
                      A                      A                      A
 Frequencies --   3098.3018              3100.7414              3101.8913
 Red. masses --      1.0866                 1.1062                 1.0865
 Frc consts  --      6.1457                 6.2663                 6.1594
 IR Inten    --     88.5779                48.2264                64.1558

                     37                     38                     39
                      A                      A                      A
 Frequencies --   3159.6846              3178.6853              3200.7513
 Red. masses --      1.1006                 1.0920                 1.0909
 Frc consts  --      6.4737                 6.5009                 6.5850
 IR Inten    --     31.1749                36.7343                25.3351

 - Thermochemistry -
 -------------------
 Temperature   298.150 Kelvin.  Pressure   1.00000 Atm.
 Atom     1 has atomic number  6 and mass  12.00000

 Molecular mass:   107.04969 amu.
 Principal axes and moments of inertia in atomic units:
                           1         2         3
     Eigenvalues --   349.162641133.415991471.10370
           X            0.77763   0.56054  -0.28476
           Y           -0.24861   0.69015   0.67962
           Z            0.57748  -0.45770   0.67604
 This molecule is an asymmetric top.
 Rotational symmetry number  1.
 Rotational temperatures (Kelvin)      0.24806     0.07642     0.05888
 Rotational constants (GHZ):           5.16877     1.59230     1.22679
 Zero-point vibrational energy     315123.4 (Joules/Mol)
                                   75.31629 (Kcal/Mol)
 Warning -- explicit consideration of   8 degrees of freedom as
           vibrations may cause significant error
 Vibrational temperatures:    124.74   314.10   393.05   423.13   556.71
          (Kelvin)            642.50   745.24   801.41   923.42  1032.57
                             1144.42  1170.70  1214.21  1371.07  1422.71
                             1423.78  1495.96  1542.66  1580.07  1702.85
                             1727.28  1736.40  1783.33  1857.02  1922.28
                             2010.12  2130.52  2152.05  2161.38  2169.77
                             2316.39  2331.86  4370.94  4457.77  4461.28
                             4462.93  4546.08  4573.42  4605.17

 Zero-point correction=                           0.120024 (Hartree/Particle)
 Thermal correction to Energy=                    0.126808
 Thermal correction to Enthalpy=                  0.127752
 Thermal correction to Gibbs Free Energy=         0.089011
 Sum of electronic and zero-point Energies=           -346.035445
 Sum of electronic and thermal Energies=              -346.028661
 Sum of electronic and thermal Enthalpies=            -346.027717
 Sum of electronic and thermal Free Energies=         -346.066458

                     E (Thermal)             CV                S
                      KCal/Mol        Cal/Mol-Kelvin    Cal/Mol-Kelvin
 Total                   79.573             25.678             81.537
 Electronic               0.000              0.000              0.000
 Translational            0.889              2.981             39.921
 Rotational               0.889              2.981             27.856
 Vibrational             77.796             19.716             13.760
 Vibration     1          0.601              1.958              3.733
 Vibration     2          0.646              1.813              1.973
 Vibration     3          0.676              1.723              1.576
 Vibration     4          0.689              1.685              1.450
 Vibration     5          0.755              1.498              1.012
 Vibration     6          0.806              1.368              0.806
 Vibration     7          0.873              1.210              0.615
 Vibration     8          0.913              1.124              0.530

 Optimization completed.
    -- Stationary point found.
 Normal termination of Gaussian 16 at Tue May 27 08:12:08 2025.
