 Gaussian 16, Revision C.01,
 Gaussian 16:  AS64L-G16RevC.01  3-Jul-2019

 ----------------------------------------------------------------------
 # opt=(calcfc,tight) freq 6-311+g(d,p) scrf=(smd,solvent=thf) nosymm s
 cf=(qc,fermi,xqc) geom=connectivity int=ultrafine m062x
 ----------------------------------------------------------------------

 ---------------------
 4-OMe-ph-opt-freq-thf
 ---------------------
 Symbolic Z-matrix:
 Charge =  0 Multiplicity = 2

 SCF Done:  E(UM062X) =  -346.028892927     A.U. after   17 cycles
 SCF Done:  E(UM062X) =  -346.033528436     A.U. after   14 cycles
 SCF Done:  E(UM062X) =  -346.033548155     A.U. after   12 cycles
 SCF Done:  E(UM062X) =  -346.033548247     A.U. after    8 cycles
 Optimization completed.
    -- Stationary point found.
 Normal termination of Gaussian 16 at Tue May  6 17:45:12 2025.

 ----------------------------------------------------------------------
 #N Geom=AllCheck Guess=TCheck SCRF=Check GenChk UM062X/6-311+G(d,p) Fr
 eq
 ----------------------------------------------------------------------

 Structure from the checkpoint file:  "4-OMe-ph-opt-freq-thf.chk"
 ---------------------
 4-OMe-ph-opt-freq-thf
 ---------------------
 Charge =  0 Multiplicity = 2

                          Input orientation:
 ---------------------------------------------------------------------
 Center     Atomic      Atomic             Coordinates (Angstroms)
 Number     Number       Type             X           Y           Z
 ---------------------------------------------------------------------
      1          6           0        6.182992    6.881971    5.145465
      2          6           0        5.143324    6.063528    5.529944
      3          1           0        5.248763    5.324497    6.316327
      4          6           0        3.931063    6.217807    4.865026
      5          1           0        3.072943    5.605569    5.118572
      6          6           0        3.799432    7.173947    3.849359
      7          6           0        4.881127    7.982400    3.493899
      8          1           0        4.794111    8.726365    2.712956
      9          6           0        6.105373    7.830808    4.160797
     10          1           0        6.950172    8.454636    3.890482
     11          8           0        2.576484    7.242566    3.264579
     12          6           0        2.393476    8.191278    2.225749
     13          1           0        1.361286    8.083427    1.898448
     14          1           0        2.554120    9.210648    2.588864
     15          1           0        3.063605    7.989983    1.384755
 ---------------------------------------------------------------------

 SCF Done:  E(UM062X) =  -346.033548247     A.U. after    1 cycles

 Alpha  occ. eigenvalues --  -19.65377 -10.60808 -10.58125 -10.56382 -10.55330
 Alpha  occ. eigenvalues --  -10.55322 -10.54922 -10.54734  -1.19415  -0.97060
 Alpha  occ. eigenvalues --   -0.86040  -0.85101  -0.78410  -0.70378  -0.66957
 Alpha  occ. eigenvalues --   -0.61438  -0.56135  -0.54694  -0.52914  -0.51704
 Alpha  occ. eigenvalues --   -0.50217  -0.47974  -0.45679  -0.43344  -0.39873
 Alpha  occ. eigenvalues --   -0.39758  -0.31807  -0.30774  -0.28716
 Alpha virt. eigenvalues --    0.01023   0.01883   0.02968   0.03131   0.03355
 Alpha virt. eigenvalues --    0.04886   0.05233   0.05709   0.06242   0.08029
 Alpha virt. eigenvalues --    0.08295   0.08869   0.09514   0.10589   0.11979

  Beta  occ. eigenvalues --  -19.65396 -10.60839 -10.58123 -10.55441 -10.55332
  Beta  occ. eigenvalues --  -10.55297 -10.54839 -10.54653  -1.19470  -0.96203
  Beta  occ. eigenvalues --   -0.85580  -0.84252  -0.77638  -0.69870  -0.65968
  Beta  occ. eigenvalues --   -0.61100  -0.55560  -0.54786  -0.52200  -0.50251
  Beta  occ. eigenvalues --   -0.49167  -0.47499  -0.45264  -0.43001  -0.39566
  Beta  occ. eigenvalues --   -0.39339  -0.31807  -0.27644
  Beta virt. eigenvalues --   -0.05184   0.00956   0.01858   0.03165   0.03449
  Beta virt. eigenvalues --    0.03950   0.04925   0.05279   0.06079   0.06635
  Beta virt. eigenvalues --    0.07903   0.08624   0.09219   0.09557   0.10772

 Mulliken charges and spin densities:
               1          2
     1  C    0.342298   0.817524
     2  C   -0.498232   0.081049
     3  H    0.205841   0.015770
     4  C   -0.075704   0.004123
     5  H    0.192291   0.004048
     6  C   -0.522182  -0.013864
     7  C    0.595684   0.000548
     8  H    0.199269   0.003840
     9  C   -0.690958   0.077693
    10  H    0.205124   0.016636
    11  O   -0.160708  -0.005190
    12  C   -0.351387  -0.001354
    13  H    0.194983   0.000129
    14  H    0.181861  -0.000474
    15  H    0.181819  -0.000478
 Sum of Mulliken charges =   0.00000   1.00000

 Dipole moment (field-independent basis, Debye):
    X=             -0.7525    Y=              1.4296    Z=             -1.7604  Tot=              2.3894
 Quadrupole moment (field-independent basis, Debye-Ang):
   XX=            -54.4929   YY=            -23.7081   ZZ=            -58.0090
   XY=              0.9386   XZ=             -9.4115   YZ=            -13.8460

  Exact polarizability:     121.297       6.554      97.727      15.982     -27.296     101.983
 Approx polarizability:     115.532       9.288      93.685      11.517     -23.858      94.847

                      1                      2                      3
                      A                      A                      A
 Frequencies --     92.2938               219.6705               267.9826
 Red. masses --      3.2864                 1.9375                 3.1541
 Frc consts  --      0.0165                 0.0551                 0.1335
 IR Inten    --      5.2975                 2.3163                 3.5193

                      4                      5                      6
                      A                      A                      A
 Frequencies --    292.6415               413.2379               452.9775
 Red. masses --      1.6585                 2.9042                 4.8383
 Frc consts  --      0.0837                 0.2922                 0.5849
 IR Inten    --      3.3422                 0.0191                 1.2557

                      7                      8                      9
                      A                      A                      A
 Frequencies --    494.5042               565.4342               608.9169
 Red. masses --      2.8313                 5.2661                 7.0762
 Frc consts  --      0.4079                 0.9920                 1.5459
 IR Inten    --     35.5478                 6.4091                 0.2715

                     10                     11                     12
                      A                      A                      A
 Frequencies --    686.3131               793.6938               811.2275
 Red. masses --      3.2114                 5.0695                 1.3615
 Frc consts  --      0.8912                 1.8816                 0.5279
 IR Inten    --      3.6372                33.3857                51.8076

                     13                     14                     15
                      A                      A                      A
 Frequencies --    826.4831               938.5953               976.4554
 Red. masses --      1.4968                 1.3362                 1.3541
 Frc consts  --      0.6024                 0.6936                 0.7607
 IR Inten    --     81.2192                 0.5269                 0.0722

                     16                     17                     18
                      A                      A                      A
 Frequencies --    991.8934              1057.2846              1080.5303
 Red. masses --      5.7103                 2.1950                 5.5244
 Frc consts  --      3.3101                 1.4457                 3.8002
 IR Inten    --      0.1484                13.4785                77.1758

                     19                     20                     21
                      A                      A                      A
 Frequencies --   1108.4958              1167.3762              1182.7979
 Red. masses --      1.3011                 1.1228                 1.2783
 Frc consts  --      0.9419                 0.9015                 1.0536
 IR Inten    --     35.6163                17.3636                 1.5021

                     22                     23                     24
                      A                      A                      A
 Frequencies --   1211.4332              1283.8360              1300.7519
 Red. masses --      1.4383                 3.4161                 1.4869
 Frc consts  --      1.2436                 3.3174                 1.4823
 IR Inten    --     13.0043               163.1600                76.9285

                     25                     26                     27
                      A                      A                      A
 Frequencies --   1334.8904              1414.0678              1480.9443
 Red. masses --      5.0130                 3.4468                 1.3347
 Frc consts  --      5.2631                 4.0607                 1.7247
 IR Inten    --    144.4791                 0.3927                56.3139

                     28                     29                     30
                      A                      A                      A
 Frequencies --   1497.8519              1503.1530              1508.7676
 Red. masses --      1.0414                 1.0478                 2.0862
 Frc consts  --      1.3766                 1.3949                 2.7980
 IR Inten    --     16.2957                34.3877                86.7611

                     31                     32                     33
                      A                      A                      A
 Frequencies --   1624.4080              1657.3794              3049.8042
 Red. masses --      5.6329                 7.9647                 1.0341
 Frc consts  --      8.7574                12.8903                 5.6670
 IR Inten    --    158.2147                 5.1053                46.5408

                     34                     35                     36
                      A                      A                      A
 Frequencies --   3119.5167              3176.1169              3202.9568
 Red. masses --      1.1072                 1.1019                 1.0882
 Frc consts  --      6.3480                 6.5490                 6.5777
 IR Inten    --     33.7852                17.8390                 0.4772

                     37                     38                     39
                      A                      A                      A
 Frequencies --   3204.9604              3218.2671              3233.4753
 Red. masses --      1.0897                 1.0958                 1.0930
 Frc consts  --      6.5947                 6.6869                 6.7332
 IR Inten    --      0.5865                 0.7867                 0.8912

 - Thermochemistry -
 -------------------
 Temperature   298.150 Kelvin.  Pressure   1.00000 Atm.
 Atom     1 has atomic number  6 and mass  12.00000

 Molecular mass:   107.04969 amu.
 Principal axes and moments of inertia in atomic units:
                           1         2         3
     Eigenvalues --   360.065181093.041821441.58956
           X            0.77019   0.57038  -0.28543
           Y           -0.25696   0.68707   0.67963
           Z            0.58376  -0.45010   0.67575
 This molecule is an asymmetric top.
 Rotational symmetry number  1.
 Rotational temperatures (Kelvin)      0.24055     0.07924     0.06008
 Rotational constants (GHZ):           5.01226     1.65112     1.25191
 Zero-point vibrational energy     317317.8 (Joules/Mol)
                                   75.84076 (Kcal/Mol)
 Warning -- explicit consideration of   9 degrees of freedom as
           vibrations may cause significant error
 Vibrational temperatures:    132.79   316.06   385.57   421.05   594.56
          (Kelvin)            651.73   711.48   813.53   876.10   987.45
                             1141.95  1167.18  1189.12  1350.43  1404.90
                             1427.11  1521.20  1554.64  1594.88  1679.59
                             1701.78  1742.98  1847.15  1871.49  1920.61
                             2034.53  2130.75  2155.07  2162.70  2170.78
                             2337.16  2384.60  4387.99  4488.29  4569.72
                             4608.34  4611.22  4630.37  4652.25

 Zero-point correction=                           0.120860 (Hartree/Particle)
 Thermal correction to Energy=                    0.127654
 Thermal correction to Enthalpy=                  0.128598
 Thermal correction to Gibbs Free Energy=         0.089247
 Sum of electronic and zero-point Energies=           -345.912688
 Sum of electronic and thermal Energies=              -345.905895
 Sum of electronic and thermal Enthalpies=            -345.904950
 Sum of electronic and thermal Free Energies=         -345.944302

                     E (Thermal)             CV                S
                      KCal/Mol        Cal/Mol-Kelvin    Cal/Mol-Kelvin
 Total                   80.104             25.780             82.821
 Electronic               0.000              0.000              1.377
 Translational            0.889              2.981             39.921
 Rotational               0.889              2.981             27.830
 Vibrational             78.326             19.819             13.692
 Vibration     1          0.602              1.955              3.611
 Vibration     2          0.647              1.811              1.962
 Vibration     3          0.673              1.732              1.609
 Vibration     4          0.688              1.687              1.459
 Vibration     5          0.777              1.441              0.915
 Vibration     6          0.812              1.354              0.787
 Vibration     7          0.850              1.262              0.672
 Vibration     8          0.921              1.106              0.513
 Vibration     9          0.968              1.013              0.435

 Optimization completed.
    -- Stationary point found.
 Normal termination of Gaussian 16 at Tue May  6 17:46:48 2025.
