 Gaussian 16, Revision C.01,
 Gaussian 16:  AS64L-G16RevC.01  3-Jul-2019

 ----------------------------------------------------------------------
 # opt=(calcfc,tight) freq 6-311+g(d,p) scrf=(smd,solvent=thf) nosymm s
 cf=(qc,fermi,xqc) geom=connectivity int=ultrafine m062x
 ----------------------------------------------------------------------

 ----------------------------
 4-cooch3-phboh2-opt-freq-thf
 ----------------------------
 Symbolic Z-matrix:
 Charge =  0 Multiplicity = 1

 SCF Done:  E(RM062X) =  -636.104156328     A.U. after   14 cycles
 SCF Done:  E(RM062X) =  -636.104317399     A.U. after   12 cycles
 SCF Done:  E(RM062X) =  -636.104317538     A.U. after   10 cycles
 SCF Done:  E(RM062X) =  -636.104317542     A.U. after    8 cycles
 SCF Done:  E(RM062X) =  -636.104317543     A.U. after    7 cycles
 Optimization completed.
    -- Stationary point found.
 Normal termination of Gaussian 16 at Mon May  5 07:35:38 2025.

 ----------------------------------------------------------------------
 #N Geom=AllCheck Guess=TCheck SCRF=Check GenChk RM062X/6-311+G(d,p) Fr
 eq
 ----------------------------------------------------------------------

 Structure from the checkpoint file:  "4-cooch3-phboh2-opt-freq-thf.chk"
 ----------------------------
 4-cooch3-phboh2-opt-freq-thf
 ----------------------------
 Charge =  0 Multiplicity = 1

                          Input orientation:
 ---------------------------------------------------------------------
 Center     Atomic      Atomic             Coordinates (Angstroms)
 Number     Number       Type             X           Y           Z
 ---------------------------------------------------------------------
      1          8           0        8.732290    7.317127    5.379213
      2          1           0        9.555792    6.965922    5.737536
      3          6           0        6.240239    7.012369    5.193187
      4          5           0        7.654731    6.546966    5.701778
      5          8           0        7.869877    5.423293    6.448542
      6          1           0        7.075126    4.928195    6.669293
      7          6           0        5.085304    6.242342    5.374304
      8          1           0        5.130578    5.277790    5.871523
      9          6           0        3.846658    6.680566    4.921492
     10          1           0        2.963245    6.072918    5.070109
     11          6           0        3.746227    7.911035    4.272405
     12          6           0        4.885367    8.692221    4.077807
     13          1           0        4.793955    9.645242    3.570482
     14          6           0        6.116931    8.242486    4.533175
     15          1           0        6.999724    8.852640    4.378679
     16          6           0        2.439747    8.432424    3.770401
     17          8           0        1.427078    7.597514    4.011156
     18          6           0        0.137121    8.032643    3.563561
     19          1           0       -0.552912    7.239439    3.839980
     20          1           0       -0.139620    8.965187    4.056031
     21          1           0        0.138906    8.174764    2.482628
     22          8           0        2.305749    9.491593    3.208804
 ---------------------------------------------------------------------

 SCF Done:  E(RM062X) =  -636.104317543     A.U. after    1 cycles

 Alpha  occ. eigenvalues --  -19.67348 -19.63903 -19.63333 -19.61847 -10.68062
 Alpha  occ. eigenvalues --  -10.58540 -10.56626 -10.55569 -10.55487 -10.55303
 Alpha  occ. eigenvalues --  -10.55025 -10.54041  -7.08781  -1.24484  -1.16925
 Alpha  occ. eigenvalues --   -1.14868  -1.13257  -0.97497  -0.87738  -0.85438
 Alpha  occ. eigenvalues --   -0.81871  -0.72149  -0.69977  -0.66006  -0.64830
 Alpha  occ. eigenvalues --   -0.63457  -0.61567  -0.57384  -0.57193  -0.55308
 Alpha  occ. eigenvalues --   -0.52508  -0.52212  -0.49973  -0.49159  -0.48515
 Alpha  occ. eigenvalues --   -0.47734  -0.46650  -0.45805  -0.43854  -0.43175
 Alpha  occ. eigenvalues --   -0.40705  -0.40646  -0.39336  -0.38097  -0.36286
 Alpha  occ. eigenvalues --   -0.32124  -0.31872
 Alpha virt. eigenvalues --   -0.03417  -0.00007   0.01084   0.01653   0.02183
 Alpha virt. eigenvalues --    0.03040   0.03172   0.04118   0.04790   0.04877
 Alpha virt. eigenvalues --    0.05376   0.06543   0.06618   0.07949   0.08086

 Mulliken charges:
               1
     1  O   -0.388202
     2  H    0.325198
     3  C   -0.370451
     4  B    0.508649
     5  O   -0.394082
     6  H    0.289455
     7  C   -0.382215
     8  H    0.172583
     9  C   -0.432555
    10  H    0.200364
    11  C    0.738860
    12  C   -0.179773
    13  H    0.199608
    14  C   -0.361593
    15  H    0.201211
    16  C   -0.023088
    17  O   -0.110213
    18  C   -0.241885
    19  H    0.192090
    20  H    0.190113
    21  H    0.189791
    22  O   -0.323864
 Sum of Mulliken charges =   0.00000

 Dipole moment (field-independent basis, Debye):
    X=             -1.2529    Y=             -3.2559    Z=              1.6942  Tot=              3.8783
 Quadrupole moment (field-independent basis, Debye-Ang):
   XX=            -71.7702   YY=           -124.4517   ZZ=            -60.7957
   XY=            -21.1927   XZ=              3.9366   YZ=             -3.2485

  Exact polarizability:     190.736      -4.179     146.924      20.866     -32.564     107.664
 Approx polarizability:     165.719       0.975     148.563      13.147     -30.903     108.090

                      1                      2                      3
                      A                      A                      A
 Frequencies --     28.2512                48.6769                67.4774
 Red. masses --      5.5424                 4.3221                 5.8874
 Frc consts  --      0.0026                 0.0060                 0.0158
 IR Inten    --      1.0471                 3.4015                 0.1943

                      4                      5                      6
                      A                      A                      A
 Frequencies --    109.0307               142.1550               184.9401
 Red. masses --      5.3498                 3.3454                 1.1634
 Frc consts  --      0.0375                 0.0398                 0.0234
 IR Inten    --      0.2673                 3.9722                 0.1540

                      7                      8                      9
                      A                      A                      A
 Frequencies --    195.3252               246.4916               262.4103
 Red. masses --      4.5145                 5.5708                 7.4019
 Frc consts  --      0.1015                 0.1994                 0.3003
 IR Inten    --      5.9588                 4.5334                 2.5652

                     10                     11                     12
                      A                      A                      A
 Frequencies --    333.2469               404.4485               413.1239
 Red. masses --      4.5816                 2.5790                 5.5870
 Frc consts  --      0.2998                 0.2486                 0.5618
 IR Inten    --     33.7404                14.6214                 2.8975

                     13                     14                     15
                      A                      A                      A
 Frequencies --    428.3694               445.3344               463.7816
 Red. masses --      4.5086                 2.8225                 1.2455
 Frc consts  --      0.4874                 0.3298                 0.1578
 IR Inten    --     19.3524                 9.7664               210.2782

                     16                     17                     18
                      A                      A                      A
 Frequencies --    498.7763               559.3878               582.1997
 Red. masses --      5.7399                 1.2716                 4.4323
 Frc consts  --      0.8413                 0.2344                 0.8852
 IR Inten    --     19.3924                24.6509                28.8225

                     19                     20                     21
                      A                      A                      A
 Frequencies --    644.0824               651.4775               724.7161
 Red. masses --      6.9369                 4.3940                 3.3856
 Frc consts  --      1.6955                 1.0988                 1.0477
 IR Inten    --      3.9586               114.8437               100.1838

                     22                     23                     24
                      A                      A                      A
 Frequencies --    754.2505               798.4900               860.3546
 Red. masses --      5.9707                 3.8267                 5.2685
 Frc consts  --      2.0013                 1.4375                 2.2977
 IR Inten    --     18.3244                21.4738                15.9864

                     25                     26                     27
                      A                      A                      A
 Frequencies --    873.0362               894.7178               994.6081
 Red. masses --      1.4639                 1.6684                 1.4904
 Frc consts  --      0.6574                 0.7869                 0.8687
 IR Inten    --      4.7607                12.9288               145.4265

                     28                     29                     30
                      A                      A                      A
 Frequencies --   1002.6997              1017.5041              1027.0913
 Red. masses --      1.3625                 5.5784                 1.3817
 Frc consts  --      0.8071                 3.4028                 0.8588
 IR Inten    --      2.4378                12.5825                 9.1269

                     31                     32                     33
                      A                      A                      A
 Frequencies --   1030.1786              1041.2629              1129.4854
 Red. masses --      1.6445                 2.4579                 2.5123
 Frc consts  --      1.0283                 1.5702                 1.8884
 IR Inten    --    202.1253                12.8867                36.2886

                     34                     35                     36
                      A                      A                      A
 Frequencies --   1136.5324              1163.6700              1186.7411
 Red. masses --      1.4964                 2.5756                 1.2847
 Frc consts  --      1.1389                 2.0549                 1.0661
 IR Inten    --     68.2089                98.3635                 2.0028

                     37                     38                     39
                      A                      A                      A
 Frequencies --   1211.1293              1233.1679              1307.9758
 Red. masses --      1.1845                 1.7457                 5.3010
 Frc consts  --      1.0237                 1.5641                 5.3433
 IR Inten    --     45.5360                50.9514               195.3232

                     40                     41                     42
                      A                      A                      A
 Frequencies --   1328.5911              1339.1555              1376.0590
 Red. masses --      3.5395                 1.5663                 4.9697
 Frc consts  --      3.6811                 1.6550                 5.5444
 IR Inten    --    863.4684                70.6082               465.8272

                     43                     44                     45
                      A                      A                      A
 Frequencies --   1397.9627              1440.6989              1488.6258
 Red. masses --      4.7112                 3.8310                 1.1800
 Frc consts  --      5.4247                 4.6850                 1.5407
 IR Inten    --    158.0070               274.0853                43.8226

                     46                     47                     48
                      A                      A                      A
 Frequencies --   1491.1922              1500.0043              1556.1310
 Red. masses --      1.0781                 1.0528                 2.6662
 Frc consts  --      1.4125                 1.3957                 3.8039
 IR Inten    --     26.0502                14.3404                69.1416

                     49                     50                     51
                      A                      A                      A
 Frequencies --   1635.8721              1683.3560              1815.0880
 Red. masses --      6.9751                 6.2589                11.9601
 Frc consts  --     10.9977                10.4497                23.2155
 IR Inten    --     15.2054                 3.3299               511.2866

                     52                     53                     54
                      A                      A                      A
 Frequencies --   3087.1762              3167.4820              3185.4225
 Red. masses --      1.0310                 1.1079                 1.0902
 Frc consts  --      5.7891                 6.5492                 6.5179
 IR Inten    --     29.6685                16.5394                17.8357

                     55                     56                     57
                      A                      A                      A
 Frequencies --   3199.9661              3211.1165              3226.7322
 Red. masses --      1.1066                 1.0895                 1.0952
 Frc consts  --      6.6762                 6.6192                 6.7185
 IR Inten    --     10.5066                 1.5540                 1.3405

                     58                     59                     60
                      A                      A                      A
 Frequencies --   3237.9604              3850.8624              3882.0268
 Red. masses --      1.0934                 1.0652                 1.0660
 Frc consts  --      6.7545                 9.3065                 9.4654
 IR Inten    --      0.7312               200.6578               131.4859

 - Thermochemistry -
 -------------------
 Temperature   298.150 Kelvin.  Pressure   1.00000 Atm.
 Atom     1 has atomic number  8 and mass  15.99491

 Molecular mass:   180.05939 amu.
 Principal axes and moments of inertia in atomic units:
                           1         2         3
     Eigenvalues --   692.136035303.772925982.02726
           X            0.91779   0.36670  -0.15229
           Y           -0.25834   0.84273   0.47229
           Z            0.30153  -0.39413   0.86819
 This molecule is an asymmetric top.
 Rotational symmetry number  1.
 Warning -- assumption of classical behavior for rotation
           may cause significant error
 Rotational temperatures (Kelvin)      0.12514     0.01633     0.01448
 Rotational constants (GHZ):           2.60749     0.34027     0.30169
 Zero-point vibrational energy     443803.1 (Joules/Mol)
                                  106.07148 (Kcal/Mol)
 Warning -- explicit consideration of  18 degrees of freedom as
           vibrations may cause significant error
 Vibrational temperatures:     40.65    70.04    97.08   156.87   204.53
          (Kelvin)            266.09   281.03   354.65   377.55   479.47
                              581.91   594.39   616.33   640.74   667.28
                              717.63   804.83   837.66   926.69   937.33
                             1042.70  1085.20  1148.85  1237.86  1256.10
                             1287.30  1431.02  1442.66  1463.96  1477.76
                             1482.20  1498.15  1625.08  1635.22  1674.26
                             1707.46  1742.54  1774.25  1881.89  1911.55
                             1926.75  1979.84  2011.36  2072.84  2141.80
                             2145.49  2158.17  2238.93  2353.66  2421.97
                             2611.51  4441.76  4557.30  4583.11  4604.04
                             4620.08  4642.55  4658.70  5540.53  5585.37

 Zero-point correction=                           0.169036 (Hartree/Particle)
 Thermal correction to Energy=                    0.181356
 Thermal correction to Enthalpy=                  0.182300
 Thermal correction to Gibbs Free Energy=         0.129072
 Sum of electronic and zero-point Energies=           -635.935282
 Sum of electronic and thermal Energies=              -635.922962
 Sum of electronic and thermal Enthalpies=            -635.922017
 Sum of electronic and thermal Free Energies=         -635.975246

                     E (Thermal)             CV                S
                      KCal/Mol        Cal/Mol-Kelvin    Cal/Mol-Kelvin
 Total                  113.803             45.257            112.028
 Electronic               0.000              0.000              0.000
 Translational            0.889              2.981             41.471
 Rotational               0.889              2.981             31.463
 Vibrational            112.025             39.295             39.094
 Vibration     1          0.593              1.984              5.949
 Vibration     2          0.595              1.978              4.870
 Vibration     3          0.598              1.970              4.226
 Vibration     4          0.606              1.942              3.286
 Vibration     5          0.616              1.911              2.775
 Vibration     6          0.631              1.860              2.278
 Vibration     7          0.636              1.846              2.177
 Vibration     8          0.661              1.769              1.756
 Vibration     9          0.670              1.742              1.646
 Vibration    10          0.715              1.609              1.244
 Vibration    11          0.770              1.461              0.946
 Vibration    12          0.777              1.442              0.916
 Vibration    13          0.790              1.408              0.864
 Vibration    14          0.805              1.371              0.810
 Vibration    15          0.821              1.330              0.755
 Vibration    16          0.854              1.253              0.661
 Vibration    17          0.915              1.119              0.525
 Vibration    18          0.939              1.070              0.481

 Optimization completed.
    -- Stationary point found.
 Normal termination of Gaussian 16 at Mon May  5 07:38:35 2025.
