 Gaussian 16, Revision C.01,
 Gaussian 16:  AS64L-G16RevC.01  3-Jul-2019

 ----------------------------------------------------------------------
 # opt=(calcfc,tight) freq 6-311+g(d,p) scrf=(smd,solvent=thf) nosymm s
 cf=(qc,fermi,xqc) geom=connectivity int=ultrafine m062x
 ----------------------------------------------------------------------

 --------------------
 3-br-ph-opt-freq-thf
 --------------------
 Symbolic Z-matrix:
 Charge =  0 Multiplicity = 2

 SCF Done:  E(UM062X) =  -2805.09000936     A.U. after   17 cycles
 SCF Done:  E(UM062X) =  -2805.09480313     A.U. after   15 cycles
 SCF Done:  E(UM062X) =  -2805.09482654     A.U. after   11 cycles
 SCF Done:  E(UM062X) =  -2805.09482664     A.U. after    8 cycles
 Optimization completed.
    -- Stationary point found.
 Normal termination of Gaussian 16 at Sun May 11 04:14:58 2025.

 ----------------------------------------------------------------------
 #N Geom=AllCheck Guess=TCheck SCRF=Check GenChk UM062X/6-311+G(d,p) Fr
 eq
 ----------------------------------------------------------------------

 Structure from the checkpoint file:  "3-br-ph-opt-freq-thf.chk"
 --------------------
 3-br-ph-opt-freq-thf
 --------------------
 Charge =  0 Multiplicity = 2

                          Input orientation:
 ---------------------------------------------------------------------
 Center     Atomic      Atomic             Coordinates (Angstroms)
 Number     Number       Type             X           Y           Z
 ---------------------------------------------------------------------
      1          6           0        6.160600    7.017024    5.140868
      2          6           0        5.108873    6.151657    5.310514
      3          1           0        5.208851    5.213374    5.843355
      4          6           0        3.887019    6.543430    4.755963
      5          1           0        3.017675    5.903269    4.855708
      6          6           0        3.772783    7.752390    4.073252
      7          6           0        4.888492    8.572824    3.945433
      8          6           0        6.127408    8.221476    4.483145
      9          1           0        6.995602    8.861590    4.382733
     10          1           0        2.823681    8.049783    3.645893
     11         35           0        4.725724   10.225312    3.009471
 ---------------------------------------------------------------------

 SCF Done:  E(UM062X) =  -2805.09482664     A.U. after    1 cycles

 Alpha  occ. eigenvalues -- -485.34041 -63.33229 -57.15980 -57.15721 -57.15713
 Alpha  occ. eigenvalues --  -10.61614 -10.58179 -10.56696 -10.56309 -10.56015
 Alpha  occ. eigenvalues --  -10.55939  -9.01947  -6.84748  -6.83714  -6.83699
 Alpha  occ. eigenvalues --   -2.87898  -2.87542  -2.87524  -2.86613  -2.86612
 Alpha  occ. eigenvalues --   -0.99542  -0.91068  -0.86317  -0.82666  -0.70476
 Alpha  occ. eigenvalues --   -0.68028  -0.60366  -0.54733  -0.52479  -0.49778
 Alpha  occ. eigenvalues --   -0.47463  -0.47272  -0.42569  -0.38720  -0.35822
 Alpha  occ. eigenvalues --   -0.33120  -0.31350  -0.30579
 Alpha virt. eigenvalues --   -0.00049   0.00469   0.01032   0.01783   0.03246
 Alpha virt. eigenvalues --    0.03770   0.04794   0.05629   0.06216   0.06665
 Alpha virt. eigenvalues --    0.08002   0.08014   0.09299   0.09381   0.11167

  Beta  occ. eigenvalues -- -485.34034 -63.33226 -57.15967 -57.15718 -57.15711
  Beta  occ. eigenvalues --  -10.61518 -10.57209 -10.56707 -10.56228 -10.56042
  Beta  occ. eigenvalues --  -10.55946  -9.01938  -6.84723  -6.83708  -6.83695
  Beta  occ. eigenvalues --   -2.87884  -2.87529  -2.87511  -2.86609  -2.86609
  Beta  occ. eigenvalues --   -0.98838  -0.90548  -0.85250  -0.82221  -0.69777
  Beta  occ. eigenvalues --   -0.66383  -0.59655  -0.53924  -0.51794  -0.49345
  Beta  occ. eigenvalues --   -0.46930  -0.45640  -0.42046  -0.38278  -0.35584
  Beta  occ. eigenvalues --   -0.32221  -0.30425
  Beta virt. eigenvalues --   -0.06082  -0.00104   0.00997   0.01617   0.01831
  Beta virt. eigenvalues --    0.03305   0.03967   0.04927   0.05762   0.06145
  Beta virt. eigenvalues --    0.07776   0.07946   0.08222   0.09225   0.09646

 Mulliken charges and spin densities:
               1          2
     1  C    0.346907   0.839180
     2  C   -0.519945   0.045555
     3  H    0.210996   0.017296
     4  C   -0.060330   0.024978
     5  H    0.206810   0.006480
     6  C   -0.493715  -0.027502
     7  C    0.715238   0.028955
     8  C   -0.665170   0.026693
     9  H    0.218044   0.018986
    10  H    0.209583   0.002756
    11  Br  -0.168418   0.016621
 Sum of Mulliken charges =   0.00000   1.00000

 Dipole moment (field-independent basis, Debye):
    X=             -0.8451    Y=             -1.8378    Z=              0.7501  Tot=              2.1574
 Quadrupole moment (field-independent basis, Debye-Ang):
   XX=            -57.8525   YY=            -81.0024   ZZ=            -49.7363
   XY=            -12.3412   XZ=              0.4295   YZ=             -3.9680

  Exact polarizability:     108.184       4.625     129.962      10.281     -34.816      84.437
 Approx polarizability:     110.369       4.587     125.192      10.271     -31.062      84.709

                      1                      2                      3
                      A                      A                      A
 Frequencies --    167.3894               257.7656               321.3341
 Red. masses --      4.8767                 5.4892                11.3087
 Frc consts  --      0.0805                 0.2149                 0.6880
 IR Inten    --      0.4640                 0.4053                 4.7645

                      4                      5                      6
                      A                      A                      A
 Frequencies --    416.2694               481.9425               611.0280
 Red. masses --      3.0613                 4.8607                 7.0703
 Frc consts  --      0.3125                 0.6652                 1.5553
 IR Inten    --      7.4952                 1.0506                 4.3804

                      7                      8                      9
                      A                      A                      A
 Frequencies --    661.4902               670.7192               773.7280
 Red. masses --      2.6050                 8.1078                 1.3528
 Frc consts  --      0.6716                 2.1490                 0.4771
 IR Inten    --     33.6552                19.2660                92.3225

                     10                     11                     12
                      A                      A                      A
 Frequencies --    864.6000               914.8488               978.4333
 Red. masses --      1.3840                 1.3475                 6.9339
 Frc consts  --      0.6095                 0.6645                 3.9110
 IR Inten    --     13.4675                 0.9162                42.9466

                     13                     14                     15
                      A                      A                      A
 Frequencies --   1000.9561              1058.7633              1081.9385
 Red. masses --      1.3355                 4.2571                 1.6870
 Frc consts  --      0.7884                 2.8117                 1.1635
 IR Inten    --      0.2760                24.0932                20.5581

                     16                     17                     18
                      A                      A                      A
 Frequencies --   1106.1349              1168.1725              1276.8686
 Red. masses --      1.6718                 1.1239                 1.4346
 Frc consts  --      1.2052                 0.9036                 1.3781
 IR Inten    --     19.4540                 1.8072                 2.2765

                     19                     20                     21
                      A                      A                      A
 Frequencies --   1294.7585              1435.9300              1468.4557
 Red. masses --      4.0410                 2.7057                 2.2276
 Frc consts  --      3.9913                 3.2870                 2.8302
 IR Inten    --      1.9049                19.0447                62.2337

                     22                     23                     24
                      A                      A                      A
 Frequencies --   1591.2399              1652.3552              3206.6827
 Red. masses --      6.5925                 7.6938                 1.0876
 Frc consts  --      9.8350                12.3765                 6.5891
 IR Inten    --     19.1122                45.8782                 1.4630

                     25                     26                     27
                      A                      A                      A
 Frequencies --   3218.6176              3222.2911              3232.9726
 Red. masses --      1.0941                 1.0928                 1.0963
 Frc consts  --      6.6778                 6.6852                 6.7513
 IR Inten    --      0.2590                 4.9066                 0.5044

 - Thermochemistry -
 -------------------
 Temperature   298.150 Kelvin.  Pressure   1.00000 Atm.
 Atom     1 has atomic number  6 and mass  12.00000

 Molecular mass:   154.94964 amu.
 Principal axes and moments of inertia in atomic units:
                           1         2         3
     Eigenvalues --   295.290401792.886602088.17697
           X           -0.06300   0.96860  -0.24050
           Y            0.87122   0.17093   0.46018
           Z           -0.48684   0.18054   0.85463
 This molecule is an asymmetric top.
 Rotational symmetry number  1.
 Rotational temperatures (Kelvin)      0.29332     0.04831     0.04148
 Rotational constants (GHZ):           6.11175     1.00661     0.86427
 Zero-point vibrational energy     204176.7 (Joules/Mol)
                                   48.79941 (Kcal/Mol)
 Warning -- explicit consideration of   6 degrees of freedom as
           vibrations may cause significant error
 Vibrational temperatures:    240.84   370.87   462.33   598.92   693.41
          (Kelvin)            879.13   951.74   965.02  1113.22  1243.97
                             1316.26  1407.75  1440.15  1523.32  1556.67
                             1591.48  1680.74  1837.13  1862.87  2065.98
                             2112.78  2289.44  2377.37  4613.70  4630.87
                             4636.16  4651.53

 Zero-point correction=                           0.077767 (Hartree/Particle)
 Thermal correction to Energy=                    0.083440
 Thermal correction to Enthalpy=                  0.084384
 Thermal correction to Gibbs Free Energy=         0.046305
 Sum of electronic and zero-point Energies=          -2805.017060
 Sum of electronic and thermal Energies=             -2805.011387
 Sum of electronic and thermal Enthalpies=           -2805.010443
 Sum of electronic and thermal Free Energies=        -2805.048522

                     E (Thermal)             CV                S
                      KCal/Mol        Cal/Mol-Kelvin    Cal/Mol-Kelvin
 Total                   52.359             20.954             80.144
 Electronic               0.000              0.000              1.377
 Translational            0.889              2.981             41.023
 Rotational               0.889              2.981             28.493
 Vibrational             50.582             14.992              9.250
 Vibration     1          0.624              1.883              2.465
 Vibration     2          0.667              1.750              1.677
 Vibration     3          0.707              1.633              1.303
 Vibration     4          0.779              1.435              0.905
 Vibration     5          0.838              1.290              0.705
 Vibration     6          0.970              1.008              0.431

 Optimization completed.
    -- Stationary point found.
 Normal termination of Gaussian 16 at Sun May 11 04:16:02 2025.
