 Gaussian 16, Revision C.01,
 Gaussian 16:  AS64L-G16RevC.01  3-Jul-2019

 ----------------------------------------------------------------------
 # opt=(calcfc,tight) freq 6-311+g(d,p) nosymm scf=(qc,fermi,xqc) geom=
 connectivity int=ultrafine m062x
 ----------------------------------------------------------------------

 --------------------
 3-br-phboh2-opt-freq
 --------------------
 Symbolic Z-matrix:
 Charge =  0 Multiplicity = 1

 SCF Done:  E(RM062X) =  -2981.79616861     A.U. after   14 cycles
 SCF Done:  E(RM062X) =  -2981.79727118     A.U. after   13 cycles
 SCF Done:  E(RM062X) =  -2981.79727205     A.U. after   10 cycles
 SCF Done:  E(RM062X) =  -2981.79727207     A.U. after    9 cycles
 SCF Done:  E(RM062X) =  -2981.79727207     A.U. after    7 cycles
 Optimization completed.
    -- Stationary point found.
 Normal termination of Gaussian 16 at Wed Apr 30 04:40:57 2025.

 ----------------------------------------------------------------------
 #N Geom=AllCheck Guess=TCheck SCRF=Check GenChk RM062X/6-311+G(d,p) Fr
 eq
 ----------------------------------------------------------------------

 Structure from the checkpoint file:  "3-br-phboh2-opt-freq.chk"
 --------------------
 3-br-phboh2-opt-freq
 --------------------
 Charge =  0 Multiplicity = 1

                          Input orientation:
 ---------------------------------------------------------------------
 Center     Atomic      Atomic             Coordinates (Angstroms)
 Number     Number       Type             X           Y           Z
 ---------------------------------------------------------------------
      1          8           0        8.688277    7.447335    5.520406
      2          1           0        9.502835    7.146399    5.933220
      3          6           0        6.240871    6.993735    5.170325
      4          5           0        7.641407    6.614883    5.770193
      5          8           0        7.871959    5.502516    6.530559
      6          1           0        7.097211    4.965499    6.703311
      7          6           0        5.119494    6.166935    5.282616
      8          1           0        5.185837    5.210054    5.792435
      9          6           0        3.894508    6.539676    4.741329
     10          1           0        3.033595    5.888656    4.834465
     11          6           0        3.766408    7.752486    4.073454
     12          6           0        4.880373    8.575300    3.958562
     13          6           0        6.107264    8.211341    4.492848
     14          1           0        6.964904    8.864905    4.390179
     15          1           0        2.818650    8.055660    3.647406
     16         35           0        4.714145   10.234626    3.046285
 ---------------------------------------------------------------------

 SCF Done:  E(RM062X) =  -2981.79727207     A.U. after    1 cycles

 Alpha  occ. eigenvalues -- -485.33587 -63.32777 -57.15525 -57.15268 -57.15261
 Alpha  occ. eigenvalues --  -19.64785 -19.63949 -10.60957 -10.56726 -10.56522
 Alpha  occ. eigenvalues --  -10.56336 -10.56211 -10.54667  -9.01495  -7.09464
 Alpha  occ. eigenvalues --   -6.84293  -6.83258  -6.83247  -2.87450  -2.87088
 Alpha  occ. eigenvalues --   -2.87073  -2.86157  -2.86156  -1.17813  -1.14129
 Alpha  occ. eigenvalues --   -0.98953  -0.90732  -0.86421  -0.82408  -0.71309
 Alpha  occ. eigenvalues --   -0.69801  -0.66077  -0.63447  -0.60290  -0.54955
 Alpha  occ. eigenvalues --   -0.53447  -0.51518  -0.49273  -0.49140  -0.46521
 Alpha  occ. eigenvalues --   -0.46428  -0.46368  -0.41784  -0.41416  -0.39830
 Alpha  occ. eigenvalues --   -0.38206  -0.35024  -0.32703  -0.30349
 Alpha virt. eigenvalues --   -0.01859  -0.00914   0.00102   0.01117   0.01469
 Alpha virt. eigenvalues --    0.02144   0.02874   0.03381   0.03990   0.05091
 Alpha virt. eigenvalues --    0.05839   0.06532   0.07625   0.08254   0.08336

 Mulliken charges:
               1
     1  O   -0.367255
     2  H    0.309001
     3  C   -0.273053
     4  B    0.487793
     5  O   -0.364958
     6  H    0.255849
     7  C   -0.251261
     8  H    0.124599
     9  C   -0.019052
    10  H    0.163983
    11  C   -0.493686
    12  C    0.861422
    13  C   -0.644641
    14  H    0.201492
    15  H    0.180309
    16  Br  -0.170543
 Sum of Mulliken charges =   0.00000

 Dipole moment (field-independent basis, Debye):
    X=             -0.6623    Y=             -2.5249    Z=              1.3269  Tot=              2.9282
 Quadrupole moment (field-independent basis, Debye-Ang):
   XX=            -72.0364   YY=           -107.2970   ZZ=            -59.8515
   XY=            -16.3843   XZ=              5.7627   YZ=             -3.9737

  Exact polarizability:     113.465      -2.830     119.379      16.092     -31.907      82.685
 Approx polarizability:     140.768       3.510     146.429      14.871     -34.010     103.110

                      1                      2                      3
                      A                      A                      A
 Frequencies --     21.5992               116.0136               127.6540
 Red. masses --      5.7280                 8.9522                 5.0113
 Frc consts  --      0.0016                 0.0710                 0.0481
 IR Inten    --      2.4624                 0.6352                 0.3114

                      4                      5                      6
                      A                      A                      A
 Frequencies --    173.9020               250.0515               305.2898
 Red. masses --      4.3492                 6.0616                 7.9225
 Frc consts  --      0.0775                 0.2233                 0.4350
 IR Inten    --      0.3578                 4.1354                 3.1163

                      7                      8                      9
                      A                      A                      A
 Frequencies --    344.6376               412.9345               444.9581
 Red. masses --      6.5902                 2.9633                 3.6492
 Frc consts  --      0.4612                 0.2977                 0.4257
 IR Inten    --      5.5926                 7.3906                25.1257

                     10                     11                     12
                      A                      A                      A
 Frequencies --    455.1041               477.6949               533.7273
 Red. masses --      1.7692                 1.8355                 3.8138
 Frc consts  --      0.2159                 0.2468                 0.6401
 IR Inten    --     81.6028                49.0036                35.6233

                     13                     14                     15
                      A                      A                      A
 Frequencies --    567.9468               671.2880               673.0093
 Red. masses --      1.3780                 5.9350                 5.2753
 Frc consts  --      0.2619                 1.5758                 1.4078
 IR Inten    --     42.3676                17.8195                19.8532

                     16                     17                     18
                      A                      A                      A
 Frequencies --    717.0815               787.2733               806.3958
 Red. masses --      2.3008                 6.8141                 1.6001
 Frc consts  --      0.6970                 2.4883                 0.6131
 IR Inten    --     92.4743                41.0647                18.6166

                     19                     20                     21
                      A                      A                      A
 Frequencies --    934.0321               944.3338               987.6699
 Red. masses --      1.3794                 1.3705                 1.4595
 Frc consts  --      0.7090                 0.7201                 0.8388
 IR Inten    --      0.0833                 4.2852               158.2977

                     22                     23                     24
                      A                      A                      A
 Frequencies --   1006.0500              1014.5708              1031.9404
 Red. masses --      1.3402                 4.7511                 1.4870
 Frc consts  --      0.7992                 2.8815                 0.9330
 IR Inten    --      0.2430                 3.1379               134.0987

                     25                     26                     27
                      A                      A                      A
 Frequencies --   1107.0403              1120.4632              1153.4692
 Red. masses --      2.9915                 1.6219                 1.9479
 Frc consts  --      2.1601                 1.1997                 1.5270
 IR Inten    --     11.9158                 9.2288                12.7443

                     28                     29                     30
                      A                      A                      A
 Frequencies --   1199.2341              1289.8907              1333.1756
 Red. masses --      1.1718                 2.9239                 1.6578
 Frc consts  --      0.9929                 2.8663                 1.7360
 IR Inten    --      0.7935                 3.8347                27.4568

                     31                     32                     33
                      A                      A                      A
 Frequencies --   1380.7139              1417.8912              1461.3048
 Red. masses --      3.7487                 4.7471                 3.9505
 Frc consts  --      4.2105                 5.6229                 4.9703
 IR Inten    --    519.6882               182.8912               225.4196

                     34                     35                     36
                      A                      A                      A
 Frequencies --   1521.2933              1632.4894              1665.8567
 Red. masses --      2.6217                 5.9874                 6.3440
 Frc consts  --      3.5749                 9.4014                10.3727
 IR Inten    --     16.6156                16.3799                11.3366

                     37                     38                     39
                      A                      A                      A
 Frequencies --   3176.0522              3216.4229              3228.5932
 Red. masses --      1.0889                 1.0909                 1.0923
 Frc consts  --      6.4715                 6.6494                 6.7082
 IR Inten    --     16.1795                 5.5287                 1.6380

                     40                     41                     42
                      A                      A                      A
 Frequencies --   3233.8730              3909.5682              3949.0143
 Red. masses --      1.0963                 1.0653                 1.0661
 Frc consts  --      6.7549                 9.5939                 9.7953
 IR Inten    --      2.0645               117.9048                58.5862

 - Thermochemistry -
 -------------------
 Temperature   298.150 Kelvin.  Pressure   1.00000 Atm.
 Atom     1 has atomic number  8 and mass  15.99491

 Molecular mass:   199.96442 amu.
 Principal axes and moments of inertia in atomic units:
                           1         2         3
     Eigenvalues --   936.849393942.674604877.34103
           X           -0.51328   0.82510  -0.23613
           Y            0.69056   0.56043   0.45722
           Z           -0.50959  -0.07162   0.85743
 This molecule is an asymmetric top.
 Rotational symmetry number  1.
 Warning -- assumption of classical behavior for rotation
           may cause significant error
 Rotational temperatures (Kelvin)      0.09245     0.02197     0.01776
 Rotational constants (GHZ):           1.92639     0.45775     0.37003
 Zero-point vibrational energy     303860.5 (Joules/Mol)
                                   72.62440 (Kcal/Mol)
 Warning -- explicit consideration of  13 degrees of freedom as
           vibrations may cause significant error
 Vibrational temperatures:     31.08   166.92   183.67   250.21   359.77
          (Kelvin)            439.24   495.86   594.12   640.20   654.79
                              687.30   767.91   817.15   965.83   968.31
                             1031.72  1132.71  1160.22  1343.86  1358.69
                             1421.04  1447.48  1459.74  1484.73  1592.78
                             1612.10  1659.58  1725.43  1855.86  1918.14
                             1986.54  2040.03  2102.49  2188.80  2348.79
                             2396.80  4569.63  4627.72  4645.23  4652.82
                             5625.00  5681.75

 Zero-point correction=                           0.115734 (Hartree/Particle)
 Thermal correction to Energy=                    0.125049
 Thermal correction to Enthalpy=                  0.125994
 Thermal correction to Gibbs Free Energy=         0.078949
 Sum of electronic and zero-point Energies=          -2981.681538
 Sum of electronic and thermal Energies=             -2981.672223
 Sum of electronic and thermal Enthalpies=           -2981.671278
 Sum of electronic and thermal Free Energies=        -2981.718323

                     E (Thermal)             CV                S
                      KCal/Mol        Cal/Mol-Kelvin    Cal/Mol-Kelvin
 Total                   78.470             34.397             99.013
 Electronic               0.000              0.000              0.000
 Translational            0.889              2.981             41.784
 Rotational               0.889              2.981             31.266
 Vibrational             76.692             28.435             25.963
 Vibration     1          0.593              1.985              6.481
 Vibration     2          0.608              1.936              3.166
 Vibration     3          0.611              1.926              2.981
 Vibration     4          0.627              1.875              2.393
 Vibration     5          0.663              1.763              1.730
 Vibration     6          0.696              1.664              1.388
 Vibration     7          0.723              1.586              1.191
 Vibration     8          0.777              1.442              0.916
 Vibration     9          0.804              1.372              0.811
 Vibration    10          0.813              1.350              0.780
 Vibration    11          0.834              1.300              0.716
 Vibration    12          0.889              1.175              0.579
 Vibration    13          0.924              1.101              0.508

 Optimization completed.
    -- Stationary point found.
 Normal termination of Gaussian 16 at Wed Apr 30 04:42:19 2025.
