 Gaussian 16, Revision C.01,
 Gaussian 16:  AS64L-G16RevC.01  3-Jul-2019

 ----------------------------------------------------------------------
 # opt=(calcfc,tight) freq 6-311+g(d,p) scrf=(smd,solvent=thf) nosymm s
 cf=(qc,fermi,xqc) geom=connectivity int=ultrafine m062x
 ----------------------------------------------------------------------

 ------------------------
 3-Me-phboh2-opt-freq-thf
 ------------------------
 Symbolic Z-matrix:
 Charge =  0 Multiplicity = 1

 SCF Done:  E(RM062X) =  -447.545085262     A.U. after   14 cycles
 SCF Done:  E(RM062X) =  -447.544881199     A.U. after   13 cycles
 SCF Done:  E(RM062X) =  -447.545056101     A.U. after   13 cycles
 SCF Done:  E(RM062X) =  -447.545076009     A.U. after   12 cycles
 SCF Done:  E(RM062X) =  -447.543834473     A.U. after   12 cycles
 SCF Done:  E(RM062X) =  -447.545129607     A.U. after   11 cycles
 SCF Done:  E(RM062X) =  -447.545149912     A.U. after   12 cycles
 SCF Done:  E(RM062X) =  -447.545154851     A.U. after   11 cycles
 SCF Done:  E(RM062X) =  -447.545159981     A.U. after   11 cycles
 SCF Done:  E(RM062X) =  -447.545154863     A.U. after   11 cycles
 SCF Done:  E(RM062X) =  -447.545161832     A.U. after    8 cycles
 SCF Done:  E(RM062X) =  -447.545160779     A.U. after    9 cycles
 SCF Done:  E(RM062X) =  -447.545161599     A.U. after    9 cycles
 SCF Done:  E(RM062X) =  -447.545161899     A.U. after    8 cycles
 SCF Done:  E(RM062X) =  -447.545161905     A.U. after    7 cycles
 SCF Done:  E(RM062X) =  -447.545161913     A.U. after    7 cycles
 SCF Done:  E(RM062X) =  -447.545161913     A.U. after    6 cycles
 SCF Done:  E(RM062X) =  -447.545161913     A.U. after    6 cycles
 SCF Done:  E(RM062X) =  -447.545161913     A.U. after    5 cycles
 Optimization completed.
    -- Stationary point found.
 Normal termination of Gaussian 16 at Wed Apr 30 05:30:40 2025.

 ----------------------------------------------------------------------
 #N Geom=AllCheck Guess=TCheck SCRF=Check GenChk RM062X/6-311+G(d,p) Fr
 eq
 ----------------------------------------------------------------------

 Structure from the checkpoint file:  "3-Me-phboh2-opt-freq-thf.chk"
 ------------------------
 3-Me-phboh2-opt-freq-thf
 ------------------------
 Charge =  0 Multiplicity = 1

                          Input orientation:
 ---------------------------------------------------------------------
 Center     Atomic      Atomic             Coordinates (Angstroms)
 Number     Number       Type             X           Y           Z
 ---------------------------------------------------------------------
      1          8           0        8.650622    7.540794    5.717139
      2          1           0        9.458665    7.230850    6.141964
      3          6           0        6.241060    7.004557    5.199217
      4          5           0        7.626593    6.646354    5.841791
      5          8           0        7.877638    5.487095    6.523814
      6          1           0        7.126964    4.888453    6.580688
      7          6           0        5.133412    6.155162    5.286066
      8          1           0        5.195935    5.205517    5.810854
      9          6           0        3.919637    6.508945    4.702115
     10          1           0        3.066555    5.843762    4.775649
     11          6           0        3.800625    7.716604    4.024339
     12          6           0        4.888064    8.589818    3.917810
     13          6           0        6.093144    8.216859    4.510103
     14          1           0        6.945341    8.885850    4.436431
     15          1           0        2.852669    7.989562    3.570082
     16          6           0        4.747740    9.892589    3.175504
     17          1           0        5.666074   10.478562    3.232291
     18          1           0        4.521008    9.715453    2.120677
     19          1           0        3.932245   10.491294    3.589099
 ---------------------------------------------------------------------

 SCF Done:  E(RM062X) =  -447.545161913     A.U. after    1 cycles

 Alpha  occ. eigenvalues --  -19.63467 -19.62923 -10.55022 -10.54493 -10.54238
 Alpha  occ. eigenvalues --  -10.54146 -10.53909 -10.52835 -10.52511  -7.08192
 Alpha  occ. eigenvalues --   -1.16500  -1.12804  -0.96282  -0.86925  -0.84142
 Alpha  occ. eigenvalues --   -0.77324  -0.69086  -0.67453  -0.64446  -0.61750
 Alpha  occ. eigenvalues --   -0.58088  -0.53354  -0.51858  -0.49436  -0.48674
 Alpha  occ. eigenvalues --   -0.47470  -0.47347  -0.45277  -0.44382  -0.44132
 Alpha  occ. eigenvalues --   -0.42298  -0.40311  -0.39435  -0.37544  -0.30970
 Alpha  occ. eigenvalues --   -0.29897
 Alpha virt. eigenvalues --   -0.00442   0.00143   0.02026   0.02070   0.02294
 Alpha virt. eigenvalues --    0.03244   0.03953   0.04175   0.05525   0.06387
 Alpha virt. eigenvalues --    0.07037   0.07481   0.08926   0.08958   0.10693

 Mulliken charges:
               1
     1  O   -0.396302
     2  H    0.326117
     3  C   -0.454807
     4  B    0.493729
     5  O   -0.372562
     6  H    0.279036
     7  C   -0.131656
     8  H    0.169234
     9  C   -0.050868
    10  H    0.187577
    11  C   -0.307529
    12  C    0.814658
    13  C   -0.831252
    14  H    0.188276
    15  H    0.189213
    16  C   -0.685575
    17  H    0.184833
    18  H    0.202522
    19  H    0.195357
 Sum of Mulliken charges =   0.00000

 Dipole moment (field-independent basis, Debye):
    X=             -1.4238    Y=             -0.8171    Z=             -0.0771  Tot=              1.6434
 Quadrupole moment (field-independent basis, Debye-Ang):
   XX=            -70.5111   YY=            -65.1197   ZZ=            -60.3311
   XY=            -14.5799   XZ=             -4.7457   YZ=             -9.6292

  Exact polarizability:     146.529       3.051     136.799      20.599     -29.701     101.326
 Approx polarizability:     136.592       5.137     127.424      16.009     -23.694      97.307

                      1                      2                      3
                      A                      A                      A
 Frequencies --     32.2565                51.8167               134.3949
 Red. masses --      4.6606                 1.0458                 4.5750
 Frc consts  --      0.0029                 0.0017                 0.0487
 IR Inten    --      5.0720                 0.0511                 1.4841

                      4                      5                      6
                      A                      A                      A
 Frequencies --    153.2337               214.1335               317.3379
 Red. masses --      4.6807                 2.8400                 3.7643
 Frc consts  --      0.0648                 0.0767                 0.2233
 IR Inten    --      3.9810                 0.4536                 4.3622

                      7                      8                      9
                      A                      A                      A
 Frequencies --    343.8326               414.7613               439.2677
 Red. masses --      4.6331                 2.7656                 3.9329
 Frc consts  --      0.3227                 0.2803                 0.4471
 IR Inten    --      5.1401                14.9076                 7.4644

                     10                     11                     12
                      A                      A                      A
 Frequencies --    443.7897               475.6836               525.4323
 Red. masses --      1.2938                 1.9989                 4.5574
 Frc consts  --      0.1501                 0.2665                 0.7413
 IR Inten    --    207.5117                23.1440                25.2568

                     13                     14                     15
                      A                      A                      A
 Frequencies --    547.4447               552.2278               667.4860
 Red. masses --      3.5285                 1.4580                 5.1627
 Frc consts  --      0.6230                 0.2620                 1.3552
 IR Inten    --     32.1080                48.5370                47.2740

                     16                     17                     18
                      A                      A                      A
 Frequencies --    707.7127               721.0935               812.1670
 Red. masses --      5.9425                 2.1313                 1.5765
 Frc consts  --      1.7536                 0.6530                 0.6127
 IR Inten    --      6.1019               109.4288                29.7960

                     19                     20                     21
                      A                      A                      A
 Frequencies --    883.9406               934.9880               950.6924
 Red. masses --      4.3296                 1.3059                 1.3682
 Frc consts  --      1.9932                 0.6726                 0.7286
 IR Inten    --      3.1043                 1.2960                 1.3868

                     22                     23                     24
                      A                      A                      A
 Frequencies --    992.2075              1014.3502              1016.8136
 Red. masses --      1.4426                 2.4038                 1.4793
 Frc consts  --      0.8368                 1.4572                 0.9012
 IR Inten    --    129.5901                49.0111                 9.7486

                     25                     26                     27
                      A                      A                      A
 Frequencies --   1017.2667              1031.6694              1068.8466
 Red. masses --      1.8296                 1.4506                 1.5685
 Frc consts  --      1.1155                 0.9097                 1.0557
 IR Inten    --      8.7818               173.2095                 9.8952

                     28                     29                     30
                      A                      A                      A
 Frequencies --   1117.0496              1144.7685              1198.8036
 Red. masses --      1.9639                 1.4638                 1.1666
 Frc consts  --      1.4438                 1.1302                 0.9878
 IR Inten    --      4.4490                34.6448                 5.3929

                     31                     32                     33
                      A                      A                      A
 Frequencies --   1245.1703              1298.5489              1344.5838
 Red. masses --      2.5086                 3.3778                 1.5962
 Frc consts  --      2.2916                 3.3558                 1.7003
 IR Inten    --     45.3648                18.0788                31.1412

                     34                     35                     36
                      A                      A                      A
 Frequencies --   1371.1196              1394.8806              1412.0737
 Red. masses --      3.6873                 4.8328                 1.3878
 Frc consts  --      4.0842                 5.5402                 1.6304
 IR Inten    --    530.9956               394.4986                53.4095

                     37                     38                     39
                      A                      A                      A
 Frequencies --   1453.5647              1477.4924              1492.3993
 Red. masses --      2.0405                 1.0452                 1.4346
 Frc consts  --      2.5401                 1.3443                 1.8826
 IR Inten    --    128.0384                13.6951                62.3114

                     40                     41                     42
                      A                      A                      A
 Frequencies --   1532.1028              1650.9418              1672.2378
 Red. masses --      2.4505                 5.5359                 6.1357
 Frc consts  --      3.3891                 8.8900                10.1090
 IR Inten    --      9.8657                21.2124                16.5008

                     43                     44                     45
                      A                      A                      A
 Frequencies --   3061.6813              3123.6497              3148.9349
 Red. masses --      1.0370                 1.1016                 1.1027
 Frc consts  --      5.7272                 6.3328                 6.4424
 IR Inten    --     23.7585                12.4087                16.3475

                     46                     47                     48
                      A                      A                      A
 Frequencies --   3176.4656              3188.8129              3192.8979
 Red. masses --      1.0886                 1.0904                 1.0910
 Frc consts  --      6.4717                 6.5327                 6.5533
 IR Inten    --     14.4352                11.5979                 6.9680

                     49                     50                     51
                      A                      A                      A
 Frequencies --   3214.3946              3854.6769              3884.7902
 Red. masses --      1.0963                 1.0652                 1.0659
 Frc consts  --      6.6742                 9.3249                 9.4781
 IR Inten    --     12.4370               186.3005               128.0308

 - Thermochemistry -
 -------------------
 Temperature   298.150 Kelvin.  Pressure   1.00000 Atm.
 Atom     1 has atomic number  8 and mass  15.99491

 Molecular mass:   136.06956 amu.
 Principal axes and moments of inertia in atomic units:
                           1         2         3
     Eigenvalues --   722.229002039.254272750.27415
           X            0.74793   0.60238  -0.27881
           Y           -0.45342   0.77042   0.44818
           Z            0.48478  -0.20878   0.84935
 This molecule is an asymmetric top.
 Rotational symmetry number  1.
 Warning -- assumption of classical behavior for rotation
           may cause significant error
 Rotational temperatures (Kelvin)      0.11993     0.04247     0.03149
 Rotational constants (GHZ):           2.49885     0.88500     0.65620
 Zero-point vibrational energy     401448.1 (Joules/Mol)
                                   95.94841 (Kcal/Mol)
 Warning -- explicit consideration of  14 degrees of freedom as
           vibrations may cause significant error
 Vibrational temperatures:     46.41    74.55   193.36   220.47   308.09
          (Kelvin)            456.58   494.70   596.75   632.01   638.51
                              684.40   755.98   787.65   794.53   960.36
                             1018.24  1037.49  1168.53  1271.79  1345.24
                             1367.83  1427.57  1459.42  1462.97  1463.62
                             1484.34  1537.83  1607.19  1647.07  1724.81
                             1791.52  1868.32  1934.56  1972.74  2006.92
                             2031.66  2091.36  2125.78  2147.23  2204.35
                             2375.34  2405.98  4405.08  4494.24  4530.61
                             4570.23  4587.99  4593.87  4624.80  5546.02
                             5589.35

 Zero-point correction=                           0.152904 (Hartree/Particle)
 Thermal correction to Energy=                    0.162632
 Thermal correction to Enthalpy=                  0.163576
 Thermal correction to Gibbs Free Energy=         0.116905
 Sum of electronic and zero-point Energies=           -447.392258
 Sum of electronic and thermal Energies=              -447.382530
 Sum of electronic and thermal Enthalpies=            -447.381586
 Sum of electronic and thermal Free Energies=         -447.428257

                     E (Thermal)             CV                S
                      KCal/Mol        Cal/Mol-Kelvin    Cal/Mol-Kelvin
 Total                  102.053             36.310             98.228
 Electronic               0.000              0.000              0.000
 Translational            0.889              2.981             40.636
 Rotational               0.889              2.981             29.783
 Vibrational            100.275             30.349             27.808
 Vibration     1          0.594              1.983              5.686
 Vibration     2          0.596              1.977              4.747
 Vibration     3          0.613              1.919              2.882
 Vibration     4          0.619              1.899              2.632
 Vibration     5          0.644              1.819              2.008
 Vibration     6          0.704              1.640              1.324
 Vibration     7          0.723              1.588              1.194
 Vibration     8          0.778              1.438              0.910
 Vibration     9          0.799              1.385              0.829
 Vibration    10          0.803              1.375              0.815
 Vibration    11          0.832              1.304              0.722
 Vibration    12          0.880              1.194              0.597
 Vibration    13          0.903              1.145              0.549
 Vibration    14          0.908              1.135              0.540

 Optimization completed.
    -- Stationary point found.
 Normal termination of Gaussian 16 at Wed Apr 30 05:32:27 2025.
