 Gaussian 16, Revision C.01,
 Gaussian 16:  AS64L-G16RevC.01  3-Jul-2019

 ----------------------------------------------------------------------
 # opt=calcfc freq 6-311+g(d,p) scrf=(smd,solvent=thf) nosymm scf=(qc,f
 ermi,xqc) geom=connectivity int=ultrafine m062x
 ----------------------------------------------------------------------

 --------------------------------------
 3-Me-ph-anion-opt-freq-thf-5-non-tight
 --------------------------------------
 Symbolic Z-matrix:
 Charge = -1 Multiplicity = 1

 SCF Done:  E(RM062X) =  -270.948904027     A.U. after   14 cycles
 Optimization completed.
    -- Stationary point found.
 Normal termination of Gaussian 16 at Mon Jun  2 13:35:41 2025.

 ----------------------------------------------------------------------
 #N Geom=AllCheck Guess=TCheck SCRF=Check GenChk RM062X/6-311+G(d,p) Fr
 eq
 ----------------------------------------------------------------------

 Structure from the checkpoint file:  "3-Me-ph-anion-opt-freq-thf-5-non-tight.chk"
 --------------------------------------
 3-Me-ph-anion-opt-freq-thf-5-non-tight
 --------------------------------------
 Charge = -1 Multiplicity = 1

                          Input orientation:
 ---------------------------------------------------------------------
 Center     Atomic      Atomic             Coordinates (Angstroms)
 Number     Number       Type             X           Y           Z
 ---------------------------------------------------------------------
      1          6           0        6.268158    7.039493    5.319178
      2          6           0        5.135488    6.191415    5.316183
      3          1           0        5.174196    5.240710    5.850978
      4          6           0        3.938280    6.486210    4.654869
      5          1           0        3.105996    5.786217    4.685764
      6          6           0        3.805445    7.679670    3.948263
      7          6           0        4.878008    8.573889    3.908574
      8          6           0        6.059989    8.229351    4.582782
      9          1           0        6.871214    8.959033    4.511950
     10          1           0        2.879490    7.915740    3.429973
     11          6           0        4.748581    9.888228    3.176126
     12          1           0        5.729577   10.288185    2.909607
     13          1           0        4.163426    9.779228    2.259199
     14          1           0        4.245661   10.637165    3.796790
 ---------------------------------------------------------------------

 SCF Done:  E(RM062X) =  -270.948904027     A.U. after    1 cycles

 Alpha  occ. eigenvalues --  -10.50826 -10.50275 -10.49974 -10.49727 -10.48429
 Alpha  occ. eigenvalues --  -10.48360 -10.44680  -0.90894  -0.82243  -0.77599
 Alpha  occ. eigenvalues --   -0.73203  -0.62798  -0.60175  -0.53074  -0.47626
 Alpha  occ. eigenvalues --   -0.46006  -0.45698  -0.42326  -0.40744  -0.39355
 Alpha  occ. eigenvalues --   -0.37791  -0.33594  -0.25692  -0.24720  -0.19318
 Alpha virt. eigenvalues --    0.03766   0.04894   0.05512   0.05990   0.06146
 Alpha virt. eigenvalues --    0.07152   0.07994   0.08226   0.09416   0.10570
 Alpha virt. eigenvalues --    0.10627   0.10833   0.12069   0.13028   0.14944

 Mulliken charges:
               1
     1  C   -0.988626
     2  C   -0.066011
     3  H    0.143960
     4  C   -0.180052
     5  H    0.159613
     6  C   -0.481427
     7  C    0.801489
     8  C   -0.466683
     9  H    0.139768
    10  H    0.163759
    11  C   -0.760359
    12  H    0.171471
    13  H    0.168588
    14  H    0.194510
 Sum of Mulliken charges =  -1.00000

 Dipole moment (field-independent basis, Debye):
    X=            -30.4957    Y=            -33.4062    Z=            -25.8721  Tot=             52.1088
 Quadrupole moment (field-independent basis, Debye-Ang):
   XX=           -243.7141   YY=           -278.2983   ZZ=           -189.3369
   XY=           -210.5674   XZ=           -164.9896   YZ=           -181.6781

  Exact polarizability:     144.011       2.659     134.816      22.815     -25.159     107.883
 Approx polarizability:     124.340       5.304     118.850      15.978     -19.125      95.463

                      1                      2                      3
                      A                      A                      A
 Frequencies --      8.3765               205.3879               345.8705
 Red. masses --      1.0408                 2.9281                 2.5630
 Frc consts  --      0.0000                 0.0728                 0.1806
 IR Inten    --      0.7941                 1.4774                 5.2786

                      4                      5                      6
                      A                      A                      A
 Frequencies --    401.4975               463.0819               528.8387
 Red. masses --      3.1775                 3.0946                 5.0757
 Frc consts  --      0.3018                 0.3910                 0.8364
 IR Inten    --     20.9686                 0.0548                 0.6583

                      7                      8                      9
                      A                      A                      A
 Frequencies --    625.6208               730.9525               773.1746
 Red. masses --      7.2807                 2.8344                 1.3023
 Frc consts  --      1.6790                 0.8922                 0.4587
 IR Inten    --      2.1134                23.2265                58.9105

                     10                     11                     12
                      A                      A                      A
 Frequencies --    802.5040               905.0665               933.4448
 Red. masses --      5.1097                 1.3102                 1.2969
 Frc consts  --      1.9388                 0.6323                 0.6658
 IR Inten    --      2.2688                 0.1573                 0.4853

                     13                     14                     15
                      A                      A                      A
 Frequencies --    995.2968              1002.1016              1006.0189
 Red. masses --      1.4434                 1.3642                 6.1161
 Frc consts  --      0.8425                 0.8071                 3.6470
 IR Inten    --      0.2512                 0.1686                 0.2533

                     16                     17                     18
                      A                      A                      A
 Frequencies --   1042.4868              1058.6639              1117.6783
 Red. masses --      2.5672                 1.5675                 1.4992
 Frc consts  --      1.6438                 1.0351                 1.1034
 IR Inten    --      2.6344                13.8107                11.4216

                     19                     20                     21
                      A                      A                      A
 Frequencies --   1183.5826              1229.3696              1252.3143
 Red. masses --      1.2463                 2.3214                 5.4230
 Frc consts  --      1.0287                 2.0672                 5.0109
 IR Inten    --      0.6554                 5.2121                29.2533

                     22                     23                     24
                      A                      A                      A
 Frequencies --   1337.2728              1399.9288              1402.6641
 Red. masses --      1.2595                 1.8885                 1.5055
 Frc consts  --      1.3271                 2.1806                 1.7452
 IR Inten    --      3.3181                 2.7645                 3.4793

                     25                     26                     27
                      A                      A                      A
 Frequencies --   1476.8509              1479.8742              1488.9060
 Red. masses --      1.0702                 1.1862                 1.8264
 Frc consts  --      1.3752                 1.5305                 2.3855
 IR Inten    --     10.4419                14.8433                 9.7038

                     28                     29                     30
                      A                      A                      A
 Frequencies --   1596.8234              1623.0089              3047.5002
 Red. masses --      5.3348                 5.3979                 1.0382
 Frc consts  --      8.0146                 8.3776                 5.6811
 IR Inten    --      7.3364                12.3259                46.6154

                     31                     32                     33
                      A                      A                      A
 Frequencies --   3078.7183              3101.3761              3107.2813
 Red. masses --      1.0865                 1.0861                 1.0992
 Frc consts  --      6.0677                 6.1550                 6.2528
 IR Inten    --    101.2151                65.7459                26.8145

                     34                     35                     36
                      A                      A                      A
 Frequencies --   3130.8602              3154.6732              3175.9272
 Red. masses --      1.1025                 1.0880                 1.0954
 Frc consts  --      6.3673                 6.3796                 6.5100
 IR Inten    --     30.1827                43.1811                58.5572

 - Thermochemistry -
 -------------------
 Temperature   298.150 Kelvin.  Pressure   1.00000 Atm.
 Atom     1 has atomic number  6 and mass  12.00000

 Molecular mass:    91.05478 amu.
 Principal axes and moments of inertia in atomic units:
                           1         2         3
     Eigenvalues --   316.81315 702.327141007.92826
           X           -0.07990   0.93646  -0.34154
           Y            0.86434   0.23576   0.44422
           Z           -0.49652   0.25971   0.82826
 This molecule is an asymmetric top.
 Rotational symmetry number  1.
 Rotational temperatures (Kelvin)      0.27339     0.12332     0.08593
 Rotational constants (GHZ):           5.69655     2.56966     1.79055
 Zero-point vibrational energy     300340.4 (Joules/Mol)
                                   71.78308 (Kcal/Mol)
 Warning -- explicit consideration of   6 degrees of freedom as
           vibrations may cause significant error
 Vibrational temperatures:     12.05   295.51   497.63   577.67   666.27
          (Kelvin)            760.88   900.13  1051.68  1112.43  1154.62
                             1302.19  1343.02  1432.01  1441.80  1447.44
                             1499.91  1523.18  1608.09  1702.91  1768.79
                             1801.80  1924.04  2014.19  2018.12  2124.86
                             2129.21  2142.20  2297.47  2335.15  4384.67
                             4429.59  4462.19  4470.68  4504.61  4538.87
                             4569.45

 Zero-point correction=                           0.114394 (Hartree/Particle)
 Thermal correction to Energy=                    0.120633
 Thermal correction to Enthalpy=                  0.121577
 Thermal correction to Gibbs Free Energy=         0.082439
 Sum of electronic and zero-point Energies=           -270.834510
 Sum of electronic and thermal Energies=              -270.828271
 Sum of electronic and thermal Enthalpies=            -270.827327
 Sum of electronic and thermal Free Energies=         -270.866465

                     E (Thermal)             CV                S
                      KCal/Mol        Cal/Mol-Kelvin    Cal/Mol-Kelvin
 Total                   75.698             22.693             82.373
 Electronic               0.000              0.000              0.000
 Translational            0.889              2.981             39.439
 Rotational               0.889              2.981             26.908
 Vibrational             73.921             16.731             16.026
 Vibration     1          0.593              1.987              8.363
 Vibration     2          0.640              1.832              2.084
 Vibration     3          0.724              1.584              1.185
 Vibration     4          0.767              1.467              0.957
 Vibration     5          0.821              1.332              0.757
 Vibration     6          0.884              1.186              0.590

 Optimization completed.
    -- Stationary point found.
 Normal termination of Gaussian 16 at Mon Jun  2 13:36:29 2025.
