 Gaussian 16, Revision C.01,
 Gaussian 16:  AS64L-G16RevC.01  3-Jul-2019

 ----------------------------------------------------------------------
 # opt=(calcfc,tight) freq 6-311+g(d,p) scrf=(smd,solvent=thf) nosymm s
 cf=(qc,fermi,xqc) geom=connectivity int=ultrafine m062x
 ----------------------------------------------------------------------

 -----------------------------
 3-5-diF-ph-anion-opt-freq-thf
 -----------------------------
 Symbolic Z-matrix:
 Charge = -1 Multiplicity = 1

 SCF Done:  E(RM062X) =  -430.124277567     A.U. after   15 cycles
 SCF Done:  E(RM062X) =  -430.137236862     A.U. after   13 cycles
 SCF Done:  E(RM062X) =  -430.137631703     A.U. after   12 cycles
 SCF Done:  E(RM062X) =  -430.137634285     A.U. after   10 cycles
 SCF Done:  E(RM062X) =  -430.137634309     A.U. after    8 cycles
 SCF Done:  E(RM062X) =  -430.137634312     A.U. after    7 cycles
 Optimization completed.
    -- Stationary point found.
 Normal termination of Gaussian 16 at Fri May 30 05:04:13 2025.

 ----------------------------------------------------------------------
 #N Geom=AllCheck Guess=TCheck SCRF=Check GenChk RM062X/6-311+G(d,p) Fr
 eq
 ----------------------------------------------------------------------

 Structure from the checkpoint file:  "3-5-diF-ph-anion-opt-freq-thf.chk"
 -----------------------------
 3-5-diF-ph-anion-opt-freq-thf
 -----------------------------
 Charge = -1 Multiplicity = 1

                          Input orientation:
 ---------------------------------------------------------------------
 Center     Atomic      Atomic             Coordinates (Angstroms)
 Number     Number       Type             X           Y           Z
 ---------------------------------------------------------------------
      1          6           0        6.294957    6.980932    5.227102
      2          6           0        5.130326    6.182185    5.314395
      3          1           0        5.133240    5.231158    5.845285
      4          6           0        3.930572    6.560012    4.735565
      5          6           0        3.760731    7.736840    4.026392
      6          6           0        4.895562    8.524475    3.935417
      7          6           0        6.112014    8.181610    4.501056
      8          1           0        6.928846    8.887491    4.357284
      9          1           0        2.816462    8.018235    3.578754
     10          9           0        2.841076    5.744043    4.857086
     11          9           0        4.784207    9.698470    3.244644
 ---------------------------------------------------------------------

 SCF Done:  E(RM062X) =  -430.137634312     A.U. after    1 cycles

 Alpha  occ. eigenvalues --  -25.22804 -25.22804 -10.59723 -10.59723 -10.51799
 Alpha  occ. eigenvalues --  -10.49801 -10.49800 -10.46622  -1.34327  -1.34283
 Alpha  occ. eigenvalues --   -0.93007  -0.80922  -0.80369  -0.67539  -0.66962
 Alpha  occ. eigenvalues --   -0.59690  -0.56738  -0.54606  -0.54042  -0.53681
 Alpha  occ. eigenvalues --   -0.51936  -0.49643  -0.43128  -0.42903  -0.39169
 Alpha  occ. eigenvalues --   -0.38282  -0.26740  -0.26586  -0.20865
 Alpha virt. eigenvalues --    0.04049   0.05176   0.05457   0.05996   0.06068
 Alpha virt. eigenvalues --    0.07124   0.07450   0.08700   0.10666   0.11460
 Alpha virt. eigenvalues --    0.11764   0.11819   0.13156   0.15920   0.16329

 Mulliken charges:
               1
     1  C   -1.016889
     2  C    0.155037
     3  H    0.165535
     4  C   -0.333552
     5  C    0.323760
     6  C   -0.332870
     7  C    0.156390
     8  H    0.165538
     9  H    0.197255
    10  F   -0.240058
    11  F   -0.240146
 Sum of Mulliken charges =  -1.00000

 Dipole moment (field-independent basis, Debye):
    X=            -28.3723    Y=            -34.0882    Z=            -24.2253  Tot=             50.5357
 Quadrupole moment (field-independent basis, Debye-Ang):
   XX=           -225.9729   YY=           -297.9260   ZZ=           -174.9950
   XY=           -201.7714   XZ=           -145.2906   YZ=           -168.9730

  Exact polarizability:     125.041       2.106     105.312      17.068     -21.374      82.823
 Approx polarizability:     110.705       4.835      99.749      12.454     -19.905      76.344

                      1                      2                      3
                      A                      A                      A
 Frequencies --    220.2682               228.5846               326.0343
 Red. masses --      4.2067                 7.8585                13.0084
 Frc consts  --      0.1203                 0.2419                 0.8147
 IR Inten    --      0.0341                 2.4696                 3.6227

                      4                      5                      6
                      A                      A                      A
 Frequencies --    457.3306               476.3505               515.5841
 Red. masses --      5.1265                 5.5675                10.0253
 Frc consts  --      0.6317                 0.7443                 1.5702
 IR Inten    --     13.0640                 9.3518                24.7933

                      7                      8                      9
                      A                      A                      A
 Frequencies --    516.5282               615.3536               692.8091
 Red. masses --      8.2493                 5.3570                 2.4157
 Frc consts  --      1.2967                 1.1951                 0.6832
 IR Inten    --     10.5647                 0.0046                32.8341

                     10                     11                     12
                      A                      A                      A
 Frequencies --    721.5795               824.3734               859.2998
 Red. masses --     12.1366                 1.4264                 1.4409
 Frc consts  --      3.7232                 0.5711                 0.6269
 IR Inten    --      7.2167                24.5341                79.5923

                     13                     14                     15
                      A                      A                      A
 Frequencies --    917.6210               963.8282              1011.6103
 Red. masses --      1.4386                 4.4778                 6.4299
 Frc consts  --      0.7137                 2.4509                 3.8768
 IR Inten    --      0.0116               160.6697                 3.2702

                     16                     17                     18
                      A                      A                      A
 Frequencies --   1107.5088              1107.7359              1235.2913
 Red. masses --      1.9034                 1.6984                 2.3827
 Frc consts  --      1.3756                 1.2279                 2.1422
 IR Inten    --     65.6401               146.1612                 4.1148

                     19                     20                     21
                      A                      A                      A
 Frequencies --   1240.3164              1297.7183              1414.1116
 Red. masses --      3.4597                 2.0074                 4.0552
 Frc consts  --      3.1358                 1.9918                 4.7778
 IR Inten    --    121.1635                38.9122                89.0781

                     22                     23                     24
                      A                      A                      A
 Frequencies --   1459.9461              1614.7258              1634.4276
 Red. masses --      2.8675                 6.5411                 9.6123
 Frc consts  --      3.6010                10.0485                15.1290
 IR Inten    --     47.0224               229.5676               193.2470

                     25                     26                     27
                      A                      A                      A
 Frequencies --   3140.5446              3143.1480              3240.2987
 Red. masses --      1.0884                 1.0890                 1.0949
 Frc consts  --      6.3250                 6.3385                 6.7731
 IR Inten    --     61.5314                26.7470                 1.6894

 - Thermochemistry -
 -------------------
 Temperature   298.150 Kelvin.  Pressure   1.00000 Atm.
 Atom     1 has atomic number  6 and mass  12.00000

 Molecular mass:   113.02028 amu.
 Principal axes and moments of inertia in atomic units:
                           1         2         3
     Eigenvalues --   467.452281017.418051484.87017
           X            0.41410   0.87259  -0.25906
           Y            0.84291  -0.26019   0.47096
           Z           -0.34355   0.41338   0.84326
 This molecule is an asymmetric top.
 Rotational symmetry number  1.
 Warning -- assumption of classical behavior for rotation
           may cause significant error
 Rotational temperatures (Kelvin)      0.18529     0.08513     0.05833
 Rotational constants (GHZ):           3.86080     1.77384     1.21542
 Zero-point vibrational energy     185319.1 (Joules/Mol)
                                   44.29232 (Kcal/Mol)
 Warning -- explicit consideration of   8 degrees of freedom as
           vibrations may cause significant error
 Vibrational temperatures:    316.92   328.88   469.09   658.00   685.36
          (Kelvin)            741.81   743.17   885.36   996.80  1038.19
                             1186.09  1236.34  1320.25  1386.73  1455.48
                             1593.46  1593.78  1777.31  1784.54  1867.13
                             2034.59  2100.54  2323.23  2351.58  4518.54
                             4522.29  4662.07

 Zero-point correction=                           0.070584 (Hartree/Particle)
 Thermal correction to Energy=                    0.076519
 Thermal correction to Enthalpy=                  0.077463
 Thermal correction to Gibbs Free Energy=         0.040424
 Sum of electronic and zero-point Energies=           -430.067050
 Sum of electronic and thermal Energies=              -430.061116
 Sum of electronic and thermal Enthalpies=            -430.060172
 Sum of electronic and thermal Free Energies=         -430.097210

                     E (Thermal)             CV                S
                      KCal/Mol        Cal/Mol-Kelvin    Cal/Mol-Kelvin
 Total                   48.016             22.671             77.954
 Electronic               0.000              0.000              0.000
 Translational            0.889              2.981             40.083
 Rotational               0.889              2.981             28.048
 Vibrational             46.239             16.710              9.823
 Vibration     1          0.647              1.810              1.957
 Vibration     2          0.651              1.797              1.890
 Vibration     3          0.710              1.623              1.280
 Vibration     4          0.815              1.345              0.774
 Vibration     5          0.833              1.303              0.720
 Vibration     6          0.871              1.215              0.620
 Vibration     7          0.872              1.213              0.618
 Vibration     8          0.975              0.999              0.424

 Optimization completed.
    -- Stationary point found.
 Normal termination of Gaussian 16 at Fri May 30 05:04:48 2025.
