 Gaussian 16, Revision C.01,
 Gaussian 16:  AS64L-G16RevC.01  3-Jul-2019

 ----------------------------------------------------------------------
 # opt=(calcfc,tight) freq 6-311+g(d,p) nosymm scf=(qc,fermi,xqc) geom=
 connectivity int=ultrafine m062x
 ----------------------------------------------------------------------

 -----------------------
 3-5-diF-phboh2-opt-freq
 -----------------------
 Symbolic Z-matrix:
 Charge =  0 Multiplicity = 1

 SCF Done:  E(RM062X) =  -606.704180099     A.U. after   14 cycles
 SCF Done:  E(RM062X) =  -606.707565953     A.U. after   11 cycles
 SCF Done:  E(RM062X) =  -606.707571008     A.U. after   11 cycles
 SCF Done:  E(RM062X) =  -606.707571942     A.U. after   11 cycles
 SCF Done:  E(RM062X) =  -606.707572215     A.U. after    9 cycles
 SCF Done:  E(RM062X) =  -606.707572219     A.U. after    7 cycles
 SCF Done:  E(RM062X) =  -606.707572219     A.U. after    5 cycles
 Optimization completed.
    -- Stationary point found.
 Normal termination of Gaussian 16 at Mon May  5 08:11:56 2025.

 ----------------------------------------------------------------------
 #N Geom=AllCheck Guess=TCheck SCRF=Check GenChk RM062X/6-311+G(d,p) Fr
 eq
 ----------------------------------------------------------------------

 Structure from the checkpoint file:  "3-5-diF-phboh2-opt-freq.chk"
 -----------------------
 3-5-diF-phboh2-opt-freq
 -----------------------
 Charge =  0 Multiplicity = 1

                          Input orientation:
 ---------------------------------------------------------------------
 Center     Atomic      Atomic             Coordinates (Angstroms)
 Number     Number       Type             X           Y           Z
 ---------------------------------------------------------------------
      1          8           0        8.678562    7.464006    5.562516
      2          1           0        9.489445    7.177101    5.992441
      3          6           0        6.241468    6.996398    5.180298
      4          5           0        7.634925    6.628151    5.808387
      5          8           0        7.855883    5.527630    6.585617
      6          1           0        7.081460    4.991406    6.762709
      7          6           0        5.137092    6.143673    5.266668
      8          1           0        5.177157    5.177121    5.757069
      9          6           0        3.935935    6.527879    4.698594
     10          6           0        3.774656    7.732659    4.038704
     11          6           0        4.884497    8.557388    3.964774
     12          6           0        6.106880    8.218366    4.514259
     13          1           0        6.945271    8.897949    4.426066
     14          1           0        2.827121    8.016026    3.600603
     15          9           0        2.881446    5.702715    4.785390
     16          9           0        4.755696    9.731230    3.329767
 ---------------------------------------------------------------------

 SCF Done:  E(RM062X) =  -606.707572219     A.U. after    1 cycles

 Alpha  occ. eigenvalues --  -25.26781 -25.26429 -19.65298 -19.64482 -10.65148
 Alpha  occ. eigenvalues --  -10.64912 -10.57138 -10.56991 -10.56199 -10.55889
 Alpha  occ. eigenvalues --   -7.10108  -1.38985  -1.38657  -1.18342  -1.14676
 Alpha  occ. eigenvalues --   -0.99292  -0.87749  -0.86960  -0.74126  -0.73299
 Alpha  occ. eigenvalues --   -0.67944  -0.66172  -0.63641  -0.61806  -0.59834
 Alpha  occ. eigenvalues --   -0.58772  -0.58122  -0.57583  -0.54457  -0.53263
 Alpha  occ. eigenvalues --   -0.49463  -0.48343  -0.47483  -0.47375  -0.45649
 Alpha  occ. eigenvalues --   -0.44371  -0.41926  -0.41003  -0.33260  -0.31840
 Alpha virt. eigenvalues --   -0.02386  -0.00931   0.01070   0.01211   0.01862
 Alpha virt. eigenvalues --    0.02642   0.03721   0.04363   0.05402   0.06247
 Alpha virt. eigenvalues --    0.07189   0.07299   0.09182   0.10409   0.10688

 Mulliken charges:
               1
     1  O   -0.379873
     2  H    0.311319
     3  C   -0.385452
     4  B    0.499019
     5  O   -0.374799
     6  H    0.261069
     7  C    0.022976
     8  H    0.138537
     9  C   -0.260043
    10  C    0.404060
    11  C   -0.188186
    12  C   -0.072192
    13  H    0.196110
    14  H    0.183885
    15  F   -0.179126
    16  F   -0.177305
 Sum of Mulliken charges =   0.00000

 Dipole moment (field-independent basis, Debye):
    X=              0.7365    Y=             -1.3358    Z=              1.1697  Tot=              1.9223
 Quadrupole moment (field-independent basis, Debye-Ang):
   XX=            -51.3964   YY=            -82.6596   ZZ=            -50.4599
   XY=             -3.8796   XZ=             12.3715   YZ=              1.0959

  Exact polarizability:     102.633       2.772      86.625      14.987     -19.090      63.872
 Approx polarizability:     122.633       7.305     113.425      14.217     -23.834      80.835

                      1                      2                      3
                      A                      A                      A
 Frequencies --     24.6594               124.4948               140.3910
 Red. masses --      6.0290                 6.4131                 7.4549
 Frc consts  --      0.0022                 0.0586                 0.0866
 IR Inten    --      2.9135                 0.0986                 1.8474

                      4                      5                      6
                      A                      A                      A
 Frequencies --    235.4301               250.0577               289.5727
 Red. masses --      6.3768                 4.4812                 9.6258
 Frc consts  --      0.2082                 0.1651                 0.4756
 IR Inten    --      1.7063                 0.5965                 3.1187

                      7                      8                      9
                      A                      A                      A
 Frequencies --    357.6031               359.4566               463.2106
 Red. masses --      7.8653                 7.2040                 1.4745
 Frc consts  --      0.5926                 0.5484                 0.1864
 IR Inten    --      8.5165                 5.4238                90.2708

                     10                     11                     12
                      A                      A                      A
 Frequencies --    468.3246               514.1621               517.3260
 Red. masses --      1.8509                 6.4055                 5.2002
 Frc consts  --      0.2392                 0.9977                 0.8200
 IR Inten    --     59.9743                 6.2340                16.4510

                     13                     14                     15
                      A                      A                      A
 Frequencies --    555.3778               572.0169               583.6892
 Red. masses --      4.9228                 6.0273                 1.4299
 Frc consts  --      0.8946                 1.1620                 0.2870
 IR Inten    --      2.0259                40.4869                61.2935

                     16                     17                     18
                      A                      A                      A
 Frequencies --    619.0704               673.3934               721.7210
 Red. masses --      4.6743                 2.9256                 3.8881
 Frc consts  --      1.0555                 0.7816                 1.1932
 IR Inten    --      1.0731                 3.6899                85.6151

                     19                     20                     21
                      A                      A                      A
 Frequencies --    878.0205               883.8956               907.9146
 Red. masses --      1.6053                 1.4394                 8.1999
 Frc consts  --      0.7292                 0.6626                 3.9824
 IR Inten    --     38.9482                17.1856                13.7815

                     22                     23                     24
                      A                      A                      A
 Frequencies --    925.1903               990.3770              1019.6946
 Red. masses --      1.4135                 1.3456                 3.5419
 Frc consts  --      0.7129                 0.7776                 2.1698
 IR Inten    --      4.5559               114.6588                54.9239

                     25                     26                     27
                      A                      A                      A
 Frequencies --   1024.8787              1036.1663              1134.6339
 Red. masses --      3.8459                 1.4408                 1.4186
 Frc consts  --      2.3801                 0.9114                 1.0760
 IR Inten    --     67.6017               108.2576                30.3478

                     28                     29                     30
                      A                      A                      A
 Frequencies --   1156.6291              1243.5714              1317.9562
 Red. masses --      1.9077                 1.5199                 4.0993
 Frc consts  --      1.5037                 1.3848                 4.1953
 IR Inten    --     96.4655                 4.5140                54.9217

                     31                     32                     33
                      A                      A                      A
 Frequencies --   1338.4133              1412.1253              1427.4952
 Red. masses --      3.9966                 7.7774                 7.6941
 Frc consts  --      4.2182                 9.1376                 9.2376
 IR Inten    --     10.2184               594.1520               170.8805

                     34                     35                     36
                      A                      A                      A
 Frequencies --   1492.7760              1527.0003              1670.0630
 Red. masses --      5.6435                 4.3614                 6.9436
 Frc consts  --      7.4095                 5.9918                11.4103
 IR Inten    --    300.8768                12.0121               144.3705

                     37                     38                     39
                      A                      A                      A
 Frequencies --   1694.5235              3205.1704              3235.1995
 Red. masses --      7.9133                 1.0914                 1.0926
 Frc consts  --     13.3875                 6.6058                 6.7379
 IR Inten    --     17.8449                 3.9491                 3.5681

                     40                     41                     42
                      A                      A                      A
 Frequencies --   3248.9515              3909.1058              3948.3902
 Red. masses --      1.0943                 1.0654                 1.0662
 Frc consts  --      6.8054                 9.5917                 9.7931
 IR Inten    --      3.3355               119.8708                60.7928

 - Thermochemistry -
 -------------------
 Temperature   298.150 Kelvin.  Pressure   1.00000 Atm.
 Atom     1 has atomic number  8 and mass  15.99491

 Molecular mass:   158.03507 amu.
 Principal axes and moments of inertia in atomic units:
                           1         2         3
     Eigenvalues --  1192.763562285.500893474.58667
           X            0.88449   0.38468  -0.26399
           Y           -0.23979   0.86021   0.45004
           Z            0.40021  -0.33475   0.85310
 This molecule is an asymmetric top.
 Rotational symmetry number  1.
 Warning -- assumption of classical behavior for rotation
           may cause significant error
 Rotational temperatures (Kelvin)      0.07262     0.03790     0.02493
 Rotational constants (GHZ):           1.51308     0.78965     0.51941
 Zero-point vibrational energy     287690.5 (Joules/Mol)
                                   68.75969 (Kcal/Mol)
 Warning -- explicit consideration of  16 degrees of freedom as
           vibrations may cause significant error
 Vibrational temperatures:     35.48   179.12   201.99   338.73   359.78
          (Kelvin)            416.63   514.51   517.18   666.46   673.81
                              739.76   744.32   799.06   823.00   839.80
                              890.70   968.86  1038.40  1263.28  1271.73
                             1306.29  1331.14  1424.93  1467.11  1474.57
                             1490.81  1632.49  1664.13  1789.22  1896.24
                             1925.68  2031.73  2053.85  2147.77  2197.01
                             2402.85  2438.04  4611.53  4654.73  4674.52
                             5624.33  5680.85

 Zero-point correction=                           0.109576 (Hartree/Particle)
 Thermal correction to Energy=                    0.119072
 Thermal correction to Enthalpy=                  0.120016
 Thermal correction to Gibbs Free Energy=         0.073685
 Sum of electronic and zero-point Energies=           -606.597997
 Sum of electronic and thermal Energies=              -606.588500
 Sum of electronic and thermal Enthalpies=            -606.587556
 Sum of electronic and thermal Free Energies=         -606.633887

                     E (Thermal)             CV                S
                      KCal/Mol        Cal/Mol-Kelvin    Cal/Mol-Kelvin
 Total                   74.719             35.974             97.511
 Electronic               0.000              0.000              0.000
 Translational            0.889              2.981             41.082
 Rotational               0.889              2.981             30.628
 Vibrational             72.941             30.012             25.802
 Vibration     1          0.593              1.985              6.218
 Vibration     2          0.610              1.928              3.029
 Vibration     3          0.615              1.913              2.799
 Vibration     4          0.655              1.787              1.837
 Vibration     5          0.663              1.763              1.730
 Vibration     6          0.686              1.693              1.476
 Vibration     7          0.733              1.560              1.133
 Vibration     8          0.734              1.556              1.124
 Vibration     9          0.821              1.332              0.757
 Vibration    10          0.826              1.320              0.742
 Vibration    11          0.869              1.219              0.624
 Vibration    12          0.872              1.212              0.616
 Vibration    13          0.911              1.128              0.533
 Vibration    14          0.928              1.092              0.500
 Vibration    15          0.941              1.067              0.479
 Vibration    16          0.979              0.992              0.418

 Optimization completed.
    -- Stationary point found.
 Normal termination of Gaussian 16 at Mon May  5 08:13:14 2025.
