 Gaussian 16, Revision C.01,
 Gaussian 16:  AS64L-G16RevC.01  3-Jul-2019

 ----------------------------------------------------------------------
 # opt=(calcfc,tight) freq 6-311+g(d,p) scrf=(smd,solvent=thf) nosymm s
 cf=(qc,fermi,xqc) geom=connectivity int=ultrafine m062x
 ----------------------------------------------------------------------

 -----------------------
 3-5-diF-ph-opt-freq-thf
 -----------------------
 Symbolic Z-matrix:
 Charge =  0 Multiplicity = 2

 SCF Done:  E(UM062X) =  -429.996637880     A.U. after   15 cycles
 SCF Done:  E(UM062X) =  -430.001361930     A.U. after   14 cycles
 SCF Done:  E(UM062X) =  -430.001384376     A.U. after   12 cycles
 SCF Done:  E(UM062X) =  -430.001384466     A.U. after    8 cycles
 SCF Done:  E(UM062X) =  -430.001384466     A.U. after    5 cycles
 Optimization completed.
    -- Stationary point found.
 Normal termination of Gaussian 16 at Sat May 10 22:08:59 2025.

 ----------------------------------------------------------------------
 #N Geom=AllCheck Guess=TCheck SCRF=Check GenChk UM062X/6-311+G(d,p) Fr
 eq
 ----------------------------------------------------------------------

 Structure from the checkpoint file:  "3-5-diF-ph-opt-freq-thf.chk"
 -----------------------
 3-5-diF-ph-opt-freq-thf
 -----------------------
 Charge =  0 Multiplicity = 2

                          Input orientation:
 ---------------------------------------------------------------------
 Center     Atomic      Atomic             Coordinates (Angstroms)
 Number     Number       Type             X           Y           Z
 ---------------------------------------------------------------------
      1          6           0        6.156212    7.021933    5.160611
      2          6           0        5.113286    6.146127    5.329135
      3          1           0        5.183225    5.211577    5.872481
      4          6           0        3.920443    6.546729    4.739656
      5          6           0        3.780274    7.730963    4.035301
      6          6           0        4.899412    8.539499    3.927788
      7          6           0        6.130273    8.216789    4.486147
      8          1           0        6.982931    8.876719    4.380811
      9          1           0        2.835870    8.012106    3.587675
     10          9           0        2.843840    5.749125    4.855690
     11          9           0        4.782226    9.693884    3.247683
 ---------------------------------------------------------------------

 SCF Done:  E(UM062X) =  -430.001384466     A.U. after    1 cycles

 Alpha  occ. eigenvalues --  -25.26832 -25.26831 -10.65296 -10.65296 -10.59260
 Alpha  occ. eigenvalues --  -10.56437 -10.56434 -10.56284  -1.38983  -1.38939
 Alpha  occ. eigenvalues --   -0.99881  -0.87374  -0.87292  -0.73493  -0.72845
 Alpha  occ. eigenvalues --   -0.65200  -0.62531  -0.59691  -0.58909  -0.58115
 Alpha  occ. eigenvalues --   -0.57829  -0.54068  -0.49281  -0.48785  -0.46777
 Alpha  occ. eigenvalues --   -0.45346  -0.33426  -0.32738  -0.31843
 Alpha virt. eigenvalues --    0.00377   0.01202   0.02118   0.03414   0.03731
 Alpha virt. eigenvalues --    0.05233   0.05347   0.06046   0.07743   0.09390
 Alpha virt. eigenvalues --    0.09503   0.10244   0.11245   0.13423   0.13806

  Beta  occ. eigenvalues --  -25.26797 -25.26797 -10.65190 -10.65189 -10.58256
  Beta  occ. eigenvalues --  -10.56452 -10.56449 -10.56315  -1.38863  -1.38818
  Beta  occ. eigenvalues --   -0.99031  -0.86930  -0.86094  -0.73156  -0.71611
  Beta  occ. eigenvalues --   -0.63703  -0.62154  -0.59283  -0.58786  -0.57716
  Beta  occ. eigenvalues --   -0.57486  -0.53767  -0.48465  -0.47378  -0.46526
  Beta  occ. eigenvalues --   -0.44472  -0.32254  -0.31956
  Beta virt. eigenvalues --   -0.06507   0.01223   0.01787   0.02279   0.03471
  Beta virt. eigenvalues --    0.03751   0.05316   0.05420   0.06257   0.08628
  Beta virt. eigenvalues --    0.09185   0.09469   0.10752   0.10958   0.13444

 Mulliken charges and spin densities:
               1          2
     1  C    0.206722   0.878872
     2  C   -0.202781   0.011863
     3  H    0.220009   0.020032
     4  C   -0.123910   0.043282
     5  C    0.171081  -0.037190
     6  C   -0.124084   0.043162
     7  C   -0.202557   0.011488
     8  H    0.220011   0.020028
     9  H    0.222745   0.002291
    10  F   -0.193595   0.003077
    11  F   -0.193640   0.003095
 Sum of Mulliken charges =   0.00000   1.00000

 Dipole moment (field-independent basis, Debye):
    X=              0.8927    Y=             -0.2677    Z=              0.4230  Tot=              1.0235
 Quadrupole moment (field-independent basis, Debye-Ang):
   XX=            -34.7727   YY=            -50.6932   ZZ=            -41.9899
   XY=              4.1055   XZ=              7.7174   YZ=              1.7048

  Exact polarizability:      93.945       8.387      90.806       9.239     -20.942      63.106
 Approx polarizability:      92.531       8.554      89.935       8.875     -20.742      62.365

                      1                      2                      3
                      A                      A                      A
 Frequencies --    230.9727               240.2147               331.9111
 Red. masses --      7.3513                 4.6701                13.2545
 Frc consts  --      0.2311                 0.1588                 0.8603
 IR Inten    --      0.5515                 0.0016                 7.8902

                      4                      5                      6
                      A                      A                      A
 Frequencies --    488.1366               499.3691               509.6689
 Red. masses --      5.4313                 5.3871                 7.7168
 Frc consts  --      0.7625                 0.7915                 1.1810
 IR Inten    --      6.5078                 0.3314                11.1712

                      7                      8                      9
                      A                      A                      A
 Frequencies --    529.6190               600.1925               652.1871
 Red. masses --      9.1960                 3.9055                 2.1148
 Frc consts  --      1.5198                 0.8289                 0.5300
 IR Inten    --     17.9125                 0.0041                45.2931

                     10                     11                     12
                      A                      A                      A
 Frequencies --    735.3660               824.6825               860.9991
 Red. masses --     12.3515                 1.4507                 1.5374
 Frc consts  --      3.9353                 0.5813                 0.6715
 IR Inten    --      4.7246                59.0113                 0.0073

                     13                     14                     15
                      A                      A                      A
 Frequencies --    866.0881               991.2920              1011.2374
 Red. masses --      1.5619                 3.2951                 5.1448
 Frc consts  --      0.6903                 1.9078                 3.0998
 IR Inten    --     73.7542               123.5290                 3.8953

                     16                     17                     18
                      A                      A                      A
 Frequencies --   1071.6401              1136.8678              1207.0788
 Red. masses --      1.4753                 1.6925                 1.3079
 Frc consts  --      0.9982                 1.2888                 1.1228
 IR Inten    --     16.7893               161.2994                 3.7923

                     19                     20                     21
                      A                      A                      A
 Frequencies --   1295.1632              1318.0792              1468.6788
 Red. masses --      5.7475                 6.5265                 4.1709
 Frc consts  --      5.6804                 6.6806                 5.3006
 IR Inten    --    103.9429                15.8889                65.7824

                     22                     23                     24
                      A                      A                      A
 Frequencies --   1487.7695              1631.4740              1680.7373
 Red. masses --      4.6301                 9.3880                 8.4464
 Frc consts  --      6.0382                14.7226                14.0580
 IR Inten    --    209.3624               143.5201               254.7117

                     25                     26                     27
                      A                      A                      A
 Frequencies --   3222.3039              3225.2783              3244.4549
 Red. masses --      1.0924                 1.0937                 1.0950
 Frc consts  --      6.6831                 6.7031                 6.7914
 IR Inten    --      9.3224                10.1581                11.5717

 - Thermochemistry -
 -------------------
 Temperature   298.150 Kelvin.  Pressure   1.00000 Atm.
 Atom     1 has atomic number  6 and mass  12.00000

 Molecular mass:   113.02028 amu.
 Principal axes and moments of inertia in atomic units:
                           1         2         3
     Eigenvalues --   441.525851026.043901467.56961
           X            0.41410   0.87268  -0.25874
           Y            0.84292  -0.26038   0.47084
           Z           -0.34352   0.41308   0.84342
 This molecule is an asymmetric top.
 Rotational symmetry number  1.
 Warning -- assumption of classical behavior for rotation
           may cause significant error
 Rotational temperatures (Kelvin)      0.19617     0.08442     0.05902
 Rotational constants (GHZ):           4.08751     1.75893     1.22975
 Zero-point vibrational energy     187583.2 (Joules/Mol)
                                   44.83346 (Kcal/Mol)
 Warning -- explicit consideration of   8 degrees of freedom as
           vibrations may cause significant error
 Vibrational temperatures:    332.32   345.62   477.55   702.32   718.48
          (Kelvin)            733.30   762.00   863.54   938.35  1058.03
                             1186.53  1238.79  1246.11  1426.25  1454.95
                             1541.85  1635.70  1736.72  1863.45  1896.42
                             2113.10  2140.57  2347.33  2418.21  4636.18
                             4640.46  4668.05

 Zero-point correction=                           0.071447 (Hartree/Particle)
 Thermal correction to Energy=                    0.077318
 Thermal correction to Enthalpy=                  0.078262
 Thermal correction to Gibbs Free Energy=         0.040736
 Sum of electronic and zero-point Energies=           -429.929938
 Sum of electronic and thermal Energies=              -429.924067
 Sum of electronic and thermal Enthalpies=            -429.923123
 Sum of electronic and thermal Free Energies=         -429.960648

                     E (Thermal)             CV                S
                      KCal/Mol        Cal/Mol-Kelvin    Cal/Mol-Kelvin
 Total                   48.518             22.564             78.979
 Electronic               0.000              0.000              1.377
 Translational            0.889              2.981             40.083
 Rotational               0.889              2.981             27.988
 Vibrational             46.740             16.603              9.530
 Vibration     1          0.653              1.794              1.871
 Vibration     2          0.657              1.779              1.801
 Vibration     3          0.714              1.612              1.251
 Vibration     4          0.844              1.276              0.688
 Vibration     5          0.855              1.251              0.660
 Vibration     6          0.865              1.229              0.634
 Vibration     7          0.885              1.184              0.588
 Vibration     8          0.958              1.031              0.449

 Optimization completed.
    -- Stationary point found.
 Normal termination of Gaussian 16 at Sat May 10 22:09:57 2025.
