 Gaussian 16, Revision C.01,
 Gaussian 16:  AS64L-G16RevC.01  3-Jul-2019

 ----------------------------------------------------------------------
 # opt=(calcfc,tight) freq 6-311+g(d,p) scrf=(smd,solvent=thf) nosymm s
 cf=(qc,fermi,xqc) geom=connectivity int=ultrafine m062x
 ----------------------------------------------------------------------

 ---------------------------
 3-5-diF-phboh2-opt-freq-thf
 ---------------------------
 Symbolic Z-matrix:
 Charge =  0 Multiplicity = 1

 SCF Done:  E(RM062X) =  -606.719821332     A.U. after   14 cycles
 SCF Done:  E(RM062X) =  -606.719755551     A.U. after   13 cycles
 SCF Done:  E(RM062X) =  -606.719955832     A.U. after   11 cycles
 SCF Done:  E(RM062X) =  -606.719961552     A.U. after   10 cycles
 SCF Done:  E(RM062X) =  -606.719962281     A.U. after    9 cycles
 SCF Done:  E(RM062X) =  -606.719962309     A.U. after    7 cycles
 SCF Done:  E(RM062X) =  -606.719962333     A.U. after    8 cycles
 SCF Done:  E(RM062X) =  -606.719962340     A.U. after    8 cycles
 SCF Done:  E(RM062X) =  -606.719962346     A.U. after    8 cycles
 SCF Done:  E(RM062X) =  -606.719962347     A.U. after    8 cycles
 SCF Done:  E(RM062X) =  -606.719962347     A.U. after    6 cycles
 Optimization completed.
    -- Stationary point found.
 Normal termination of Gaussian 16 at Tue May  6 17:18:06 2025.

 ----------------------------------------------------------------------
 #N Geom=AllCheck Guess=TCheck SCRF=Check GenChk RM062X/6-311+G(d,p) Fr
 eq
 ----------------------------------------------------------------------

 Structure from the checkpoint file:  "3-5-diF-phboh2-opt-freq-thf.chk"
 ---------------------------
 3-5-diF-phboh2-opt-freq-thf
 ---------------------------
 Charge =  0 Multiplicity = 1

                          Input orientation:
 ---------------------------------------------------------------------
 Center     Atomic      Atomic             Coordinates (Angstroms)
 Number     Number       Type             X           Y           Z
 ---------------------------------------------------------------------
      1          8           0        8.638869    7.541952    5.695784
      2          1           0        9.461537    7.244361    6.101625
      3          6           0        6.237135    7.001386    5.194515
      4          5           0        7.632678    6.633579    5.825680
      5          8           0        7.892421    5.469429    6.487724
      6          1           0        7.153994    4.854924    6.540073
      7          6           0        5.120182    6.168361    5.317119
      8          1           0        5.143056    5.226188    5.854385
      9          6           0        3.925720    6.553142    4.736901
     10          6           0        3.772723    7.732507    4.031720
     11          6           0        4.895285    8.534581    3.929061
     12          6           0        6.114088    8.203515    4.488861
     13          1           0        6.956071    8.875598    4.374718
     14          1           0        2.826758    8.011850    3.585165
     15          9           0        2.853974    5.745984    4.861432
     16          9           0        4.783001    9.692341    3.249099
 ---------------------------------------------------------------------

 SCF Done:  E(RM062X) =  -606.719962347     A.U. after    1 cycles

 Alpha  occ. eigenvalues --  -25.26513 -25.26371 -19.64216 -19.63631 -10.64488
 Alpha  occ. eigenvalues --  -10.64366 -10.56428 -10.56081 -10.55618 -10.55203
 Alpha  occ. eigenvalues --   -7.09273  -1.38548  -1.38398  -1.17247  -1.13602
 Alpha  occ. eigenvalues --   -0.98701  -0.87058  -0.86373  -0.73465  -0.72751
 Alpha  occ. eigenvalues --   -0.67275  -0.65175  -0.62830  -0.61237  -0.58853
 Alpha  occ. eigenvalues --   -0.58493  -0.57488  -0.57412  -0.54050  -0.52389
 Alpha  occ. eigenvalues --   -0.48547  -0.47785  -0.46798  -0.46569  -0.44893
 Alpha  occ. eigenvalues --   -0.43895  -0.41012  -0.40207  -0.32654  -0.31376
 Alpha virt. eigenvalues --   -0.01696  -0.00031   0.01727   0.01970   0.02161
 Alpha virt. eigenvalues --    0.02983   0.04115   0.04394   0.05811   0.06659
 Alpha virt. eigenvalues --    0.07442   0.07629   0.09406   0.10942   0.11144

 Mulliken charges:
               1
     1  O   -0.412153
     2  H    0.334761
     3  C   -0.411332
     4  B    0.533943
     5  O   -0.413471
     6  H    0.291102
     7  C   -0.062085
     8  H    0.189325
     9  C   -0.182052
    10  C    0.366944
    11  C   -0.135935
    12  C   -0.127743
    13  H    0.213156
    14  H    0.217594
    15  F   -0.201011
    16  F   -0.201044
 Sum of Mulliken charges =   0.00000

 Dipole moment (field-independent basis, Debye):
    X=              0.8416    Y=             -1.9387    Z=              1.2002  Tot=              2.4305
 Quadrupole moment (field-independent basis, Debye-Ang):
   XX=            -50.2179   YY=            -90.9536   ZZ=            -50.6796
   XY=             -7.1413   XZ=             13.1935   YZ=             -1.5993

  Exact polarizability:     129.503       5.298     112.225      17.756     -25.513      81.987
 Approx polarizability:     122.337       7.401     112.057      13.869     -23.981      81.632

 ******    1 imaginary frequencies (negative Signs) ******

                      1                      2                      3
                      A                      A                      A
 Frequencies --     -2.0636               124.0427               144.5360
 Red. masses --      6.2527                 6.3870                 7.4491
 Frc consts  --      0.0000                 0.0579                 0.0917
 IR Inten    --      3.9622                 0.0944                 2.9413

                      4                      5                      6
                      A                      A                      A
 Frequencies --    234.9142               249.0056               290.0462
 Red. masses --      6.4243                 4.4543                 9.8498
 Frc consts  --      0.2089                 0.1627                 0.4882
 IR Inten    --      2.2143                 0.7220                 4.5585

                      7                      8                      9
                      A                      A                      A
 Frequencies --    357.1382               359.7717               456.3591
 Red. masses --      8.4810                 6.9235                 1.2696
 Frc consts  --      0.6373                 0.5280                 0.1558
 IR Inten    --     15.1620                 4.7586               201.4324

                     10                     11                     12
                      A                      A                      A
 Frequencies --    462.9417               515.0070               516.5286
 Red. masses --      2.0571                 6.4486                 5.2981
 Frc consts  --      0.2597                 1.0077                 0.8328
 IR Inten    --     43.6465                17.6252                16.1715

                     13                     14                     15
                      A                      A                      A
 Frequencies --    555.9114               563.3664               570.2426
 Red. masses --      5.0064                 1.5338                 5.5452
 Frc consts  --      0.9116                 0.2868                 1.0624
 IR Inten    --      2.8995                62.4160                56.7707

                     16                     17                     18
                      A                      A                      A
 Frequencies --    615.3324               666.8757               713.2871
 Red. masses --      4.7399                 3.1201                 3.5382
 Frc consts  --      1.0574                 0.8175                 1.0606
 IR Inten    --      1.5846                 2.5276               113.7811

                     19                     20                     21
                      A                      A                      A
 Frequencies --    879.1110               887.0291               902.8353
 Red. masses --      1.6212                 1.4589                 8.2705
 Frc consts  --      0.7382                 0.6763                 3.9719
 IR Inten    --     75.6553                13.3607                25.1878

                     22                     23                     24
                      A                      A                      A
 Frequencies --    921.2100               990.5450              1011.6769
 Red. masses --      1.4328                 1.4001                 3.0299
 Frc consts  --      0.7164                 0.8094                 1.8271
 IR Inten    --      4.5216               102.2796               261.1242

                     25                     26                     27
                      A                      A                      A
 Frequencies --   1022.3364              1032.5859              1137.6892
 Red. masses --      5.6813                 1.4330                 1.5439
 Frc consts  --      3.4985                 0.9002                 1.1774
 IR Inten    --     24.1672               133.6650               122.2926

                     28                     29                     30
                      A                      A                      A
 Frequencies --   1148.9728              1251.6328              1296.9718
 Red. masses --      1.6131                 1.5851                 4.1816
 Frc consts  --      1.2547                 1.4631                 4.1443
 IR Inten    --     51.0890                 5.9713                48.2755

                     31                     32                     33
                      A                      A                      A
 Frequencies --   1338.1197              1388.7127              1406.2734
 Red. masses --      3.6159                 7.1962                 7.5248
 Frc consts  --      3.8147                 8.1767                 8.7677
 IR Inten    --     16.7875               844.4729               248.3679

                     34                     35                     36
                      A                      A                      A
 Frequencies --   1480.8622              1523.6330              1659.5141
 Red. masses --      5.0611                 4.0345                 7.0419
 Frc consts  --      6.5392                 5.5183                11.4263
 IR Inten    --    414.7655                24.2966               205.0664

                     37                     38                     39
                      A                      A                      A
 Frequencies --   1694.1367              3209.8548              3229.5337
 Red. masses --      7.8408                 1.0922                 1.0931
 Frc consts  --     13.2589                 6.6303                 6.7174
 IR Inten    --     27.2248                 1.1759                 4.6874

                     40                     41                     42
                      A                      A                      A
 Frequencies --   3240.7217              3850.7653              3879.5903
 Red. masses --      1.0953                 1.0652                 1.0662
 Frc consts  --      6.7776                 9.3064                 9.4547
 IR Inten    --     10.9557               204.0140               138.1353

 - Thermochemistry -
 -------------------
 Temperature   298.150 Kelvin.  Pressure   1.00000 Atm.
 Atom     1 has atomic number  8 and mass  15.99491

 Molecular mass:   158.03507 amu.
 Principal axes and moments of inertia in atomic units:
                           1         2         3
     Eigenvalues --  1193.528442288.976493481.77430
           X            0.88358   0.38910  -0.26055
           Y           -0.23865   0.85288   0.46437
           Z            0.40290  -0.34813   0.84645
 This molecule is an asymmetric top.
 Rotational symmetry number  1.
 Warning -- assumption of classical behavior for rotation
           may cause significant error
 Rotational temperatures (Kelvin)      0.07257     0.03784     0.02488
 Rotational constants (GHZ):           1.51211     0.78845     0.51834
    1 imaginary frequencies ignored.
 Zero-point vibrational energy     285785.6 (Joules/Mol)
                                   68.30440 (Kcal/Mol)
 Warning -- explicit consideration of  15 degrees of freedom as
           vibrations may cause significant error
 Vibrational temperatures:    178.47   207.96   337.99   358.26   417.31
          (Kelvin)            513.84   517.63   656.60   666.07   740.98
                              743.17   799.83   810.56   820.45   885.33
                              959.49  1026.26  1264.84  1276.24  1298.98
                             1325.42  1425.17  1455.58  1470.91  1485.66
                             1636.88  1653.12  1800.82  1866.05  1925.26
                             1998.05  2023.31  2130.63  2192.17  2387.67
                             2437.48  4618.27  4646.58  4662.68  5540.39
                             5581.87

 Zero-point correction=                           0.108850 (Hartree/Particle)
 Thermal correction to Energy=                    0.117489
 Thermal correction to Enthalpy=                  0.118433
 Thermal correction to Gibbs Free Energy=         0.075019
 Sum of electronic and zero-point Energies=           -606.611112
 Sum of electronic and thermal Energies=              -606.602473
 Sum of electronic and thermal Enthalpies=            -606.601529
 Sum of electronic and thermal Free Energies=         -606.644943

                     E (Thermal)             CV                S
                      KCal/Mol        Cal/Mol-Kelvin    Cal/Mol-Kelvin
 Total                   73.725             34.148             91.372
 Electronic               0.000              0.000              0.000
 Translational            0.889              2.981             41.082
 Rotational               0.889              2.981             30.632
 Vibrational             71.948             28.186             19.658
 Vibration     1          0.610              1.929              3.036
 Vibration     2          0.616              1.909              2.743
 Vibration     3          0.655              1.787              1.841
 Vibration     4          0.662              1.764              1.738
 Vibration     5          0.686              1.692              1.474
 Vibration     6          0.732              1.561              1.135
 Vibration     7          0.734              1.555              1.123
 Vibration     8          0.815              1.347              0.777
 Vibration     9          0.821              1.332              0.758
 Vibration    10          0.870              1.217              0.622
 Vibration    11          0.872              1.213              0.618
 Vibration    12          0.911              1.127              0.532
 Vibration    13          0.919              1.111              0.517
 Vibration    14          0.926              1.096              0.504
 Vibration    15          0.975              0.999              0.424

 Optimization completed.
    -- Stationary point found.
 Normal termination of Gaussian 16 at Tue May  6 17:19:34 2025.
