 Gaussian 16, Revision C.01,
 Gaussian 16:  AS64L-G16RevC.01  3-Jul-2019

 ----------------------------------------------------------------------
 # opt=(calcfc,tight) freq 6-311+g(d,p) scrf=(smd,solvent=thf) nosymm s
 cf=(qc,fermi,xqc) geom=connectivity int=ultrafine m062x
 ----------------------------------------------------------------------

 -----------------
 boh2-opt-freq-thf
 -----------------
 Symbolic Z-matrix:
 Charge =  0 Multiplicity = 2

 SCF Done:  E(UM062X) =  -176.529260108     A.U. after   13 cycles
 SCF Done:  E(UM062X) =  -176.529314441     A.U. after   10 cycles
 SCF Done:  E(UM062X) =  -176.529314449     A.U. after    6 cycles
 Optimization completed.
    -- Stationary point found.
 Normal termination of Gaussian 16 at Tue May  6 17:31:04 2025.

 ----------------------------------------------------------------------
 #N Geom=AllCheck Guess=TCheck SCRF=Check GenChk UM062X/6-311+G(d,p) Fr
 eq
 ----------------------------------------------------------------------

 Structure from the checkpoint file:  "boh2-opt-freq-thf.chk"
 -----------------
 boh2-opt-freq-thf
 -----------------
 Charge =  0 Multiplicity = 2

                          Input orientation:
 ---------------------------------------------------------------------
 Center     Atomic      Atomic             Coordinates (Angstroms)
 Number     Number       Type             X           Y           Z
 ---------------------------------------------------------------------
      1          8           0        8.681448    7.457955    5.556803
      2          1           0        9.534726    7.201932    5.941133
      3          5           0        7.688790    6.587681    5.807452
      4          8           0        7.860419    5.456125    6.528634
      5          1           0        7.059764    4.929978    6.627244
 ---------------------------------------------------------------------

 SCF Done:  E(UM062X) =  -176.529314449     A.U. after    1 cycles

 Alpha  occ. eigenvalues --  -19.65261 -19.64684  -7.10864  -1.18119  -1.14898
 Alpha  occ. eigenvalues --   -0.66927  -0.63970  -0.51917  -0.48853  -0.47358
 Alpha  occ. eigenvalues --   -0.41671  -0.25660
 Alpha virt. eigenvalues --    0.01858   0.02716   0.03396   0.04884   0.07859
 Alpha virt. eigenvalues --    0.14891   0.15934   0.18553   0.19688   0.21554
 Alpha virt. eigenvalues --    0.23171   0.24433   0.25515   0.26959   0.30147

  Beta  occ. eigenvalues --  -19.65117 -19.64571  -7.10025  -1.17481  -1.14400
  Beta  occ. eigenvalues --   -0.66112  -0.62905  -0.49650  -0.48226  -0.47007
  Beta  occ. eigenvalues --   -0.41891
  Beta virt. eigenvalues --   -0.09383   0.01788   0.02692   0.02868   0.07553
  Beta virt. eigenvalues --    0.10078   0.13931   0.15775   0.16231   0.19161
  Beta virt. eigenvalues --    0.19824   0.22358   0.22717   0.24612   0.26156

 Mulliken charges and spin densities:
               1          2
     1  O   -0.325272  -0.066350
     2  H    0.304698   0.038593
     3  B    0.034902   1.067163
     4  O   -0.324886  -0.043758
     5  H    0.310557   0.004353
 Sum of Mulliken charges =   0.00000   1.00000

 Dipole moment (field-independent basis, Debye):
    X=              0.0521    Y=             -1.6624    Z=              1.0094  Tot=              1.9456
 Quadrupole moment (field-independent basis, Debye-Ang):
   XX=            -12.9593   YY=            -39.7207   ZZ=             -6.8767
   XY=             -9.5742   XZ=              7.5303   YZ=             -2.4032

  Exact polarizability:      30.910       2.798      29.796      -0.074      -2.222      26.173
 Approx polarizability:      26.395       2.187      25.817       0.171      -2.321      22.368

                      1                      2                      3
                      A                      A                      A
 Frequencies --    440.8820               455.0259               547.9947
 Red. masses --      1.1084                 3.0562                 1.4273
 Frc consts  --      0.1269                 0.3728                 0.2525
 IR Inten    --    342.3659                59.9102                10.7043

                      4                      5                      6
                      A                      A                      A
 Frequencies --    960.2470               984.5437              1201.1367
 Red. masses --      1.1771                 1.7082                 3.9473
 Frc consts  --      0.6395                 0.9756                 3.3553
 IR Inten    --    132.3811               118.5166               236.4765

                      7                      8                      9
                      A                      A                      A
 Frequencies --   1433.4438              3744.7380              3865.4973
 Red. masses --      8.9110                 1.0639                 1.0664
 Frc consts  --     10.7879                 8.7900                 9.3880
 IR Inten    --    485.2858                83.0798               258.9230

 - Thermochemistry -
 -------------------
 Temperature   298.150 Kelvin.  Pressure   1.00000 Atm.
 Atom     1 has atomic number  8 and mass  15.99491

 Molecular mass:    45.01478 amu.
 Principal axes and moments of inertia in atomic units:
                           1         2         3
     Eigenvalues --    16.90434 179.03260 195.93693
           X            0.38761   0.89363  -0.22624
           Y            0.83403  -0.23544   0.49896
           Z           -0.39261   0.38209   0.83658
 This molecule is an asymmetric top.
 Rotational symmetry number  1.
 Rotational temperatures (Kelvin)      5.12377     0.48379     0.44205
 Rotational constants (GHZ):         106.76200    10.08052     9.21083
 Zero-point vibrational energy      81546.5 (Joules/Mol)
                                   19.49008 (Kcal/Mol)
 Warning -- explicit consideration of   3 degrees of freedom as
           vibrations may cause significant error
 Vibrational temperatures:    634.33   654.68   788.44  1381.58  1416.54
          (Kelvin)           1728.17  2062.41  5387.84  5561.59

 Zero-point correction=                           0.031059 (Hartree/Particle)
 Thermal correction to Energy=                    0.034719
 Thermal correction to Enthalpy=                  0.035664
 Thermal correction to Gibbs Free Energy=         0.006136
 Sum of electronic and zero-point Energies=           -176.498255
 Sum of electronic and thermal Energies=              -176.494595
 Sum of electronic and thermal Enthalpies=            -176.493651
 Sum of electronic and thermal Free Energies=         -176.523178

                     E (Thermal)             CV                S
                      KCal/Mol        Cal/Mol-Kelvin    Cal/Mol-Kelvin
 Total                   21.787             10.952             62.146
 Electronic               0.000              0.000              1.377
 Translational            0.889              2.981             37.339
 Rotational               0.889              2.981             21.011
 Vibrational             20.009              4.991              2.419
 Vibration     1          0.801              1.381              0.824
 Vibration     2          0.813              1.350              0.781
 Vibration     3          0.903              1.144              0.548

 Optimization completed.
    -- Stationary point found.
 Normal termination of Gaussian 16 at Tue May  6 17:31:11 2025.
