 Gaussian 16, Revision C.01,
 Gaussian 16:  AS64L-G16RevC.01  3-Jul-2019

 ----------------------------------------------------------------------
 # opt=(calcfc,tight) freq 6-311+g(d,p) scrf=(smd,solvent=thf) nosymm s
 cf=(qc,fermi,xqc) geom=connectivity int=ultrafine m062x
 ----------------------------------------------------------------------

 ---------------
 ph-opt-freq-thf
 ---------------
 Symbolic Z-matrix:
 Charge =  0 Multiplicity = 2

 SCF Done:  E(UM062X) =  -231.515983723     A.U. after   16 cycles
 SCF Done:  E(UM062X) =  -231.520708032     A.U. after   14 cycles
 SCF Done:  E(UM062X) =  -231.520728696     A.U. after   10 cycles
 SCF Done:  E(UM062X) =  -231.520728789     A.U. after    8 cycles
 Optimization completed.
    -- Stationary point found.
 Normal termination of Gaussian 16 at Mon May  5 08:14:07 2025.

 ----------------------------------------------------------------------
 #N Geom=AllCheck Guess=TCheck SCRF=Check GenChk UM062X/6-311+G(d,p) Fr
 eq
 ----------------------------------------------------------------------

 Structure from the checkpoint file:  "ph-opt-freq-thf.chk"
 ---------------
 ph-opt-freq-thf
 ---------------
 Charge =  0 Multiplicity = 2

                          Input orientation:
 ---------------------------------------------------------------------
 Center     Atomic      Atomic             Coordinates (Angstroms)
 Number     Number       Type             X           Y           Z
 ---------------------------------------------------------------------
      1          6           0        6.168261    7.018587    5.139551
      2          6           0        5.117123    6.149873    5.306451
      3          1           0        5.220694    5.210097    5.837284
      4          6           0        3.890531    6.535915    4.754521
      5          1           0        3.027777    5.886869    4.857441
      6          6           0        3.778333    7.748086    4.075976
      7          6           0        4.880633    8.589517    3.938009
      8          1           0        4.784687    9.531040    3.408375
      9          6           0        6.117047    8.223678    4.481778
     10          1           0        6.984021    8.867318    4.382861
     11          1           0        2.824539    8.039264    3.651551
 ---------------------------------------------------------------------

 SCF Done:  E(UM062X) =  -231.520728789     A.U. after    1 cycles

 Alpha  occ. eigenvalues --  -10.56930 -10.55189 -10.55188 -10.55110 -10.55109
 Alpha  occ. eigenvalues --  -10.54471  -0.97244  -0.85351  -0.84516  -0.69576
 Alpha  occ. eigenvalues --   -0.67862  -0.59620  -0.52512  -0.52441  -0.49818
 Alpha  occ. eigenvalues --   -0.45537  -0.45227  -0.41578  -0.32085  -0.31603
 Alpha  occ. eigenvalues --   -0.30419
 Alpha virt. eigenvalues --    0.01123   0.01614   0.02288   0.03494   0.04068
 Alpha virt. eigenvalues --    0.05717   0.06180   0.06728   0.08656   0.09481
 Alpha virt. eigenvalues --    0.09659   0.09908   0.11415   0.14585   0.14708

  Beta  occ. eigenvalues --  -10.55975 -10.55163 -10.55157 -10.55064 -10.55060
  Beta  occ. eigenvalues --  -10.54500  -0.96369  -0.84925  -0.83108  -0.69030
  Beta  occ. eigenvalues --   -0.66444  -0.58617  -0.51688  -0.51622  -0.49260
  Beta  occ. eigenvalues --   -0.44509  -0.43848  -0.41077  -0.31654  -0.30747
  Beta virt. eigenvalues --   -0.05053   0.01078   0.02222   0.02778   0.03598
  Beta virt. eigenvalues --    0.04282   0.05777   0.06759   0.07010   0.08898
  Beta virt. eigenvalues --    0.09655   0.09724   0.09950   0.11119   0.14593

 Mulliken charges and spin densities:
               1          2
     1  C    0.260869   0.827271
     2  C   -0.396785   0.050192
     3  H    0.204594   0.017471
     4  C   -0.108849   0.025566
     5  H    0.197333   0.005109
     6  C   -0.248663  -0.027039
     7  C   -0.108884   0.025506
     8  H    0.197335   0.005103
     9  C   -0.396398   0.049802
    10  H    0.204590   0.017461
    11  H    0.194858   0.003557
 Sum of Mulliken charges =   0.00000   1.00000

 Dipole moment (field-independent basis, Debye):
    X=             -1.0420    Y=              0.3181    Z=             -0.4641  Tot=              1.1842
 Quadrupole moment (field-independent basis, Debye-Ang):
   XX=            -43.4869   YY=            -26.6858   ZZ=            -41.9227
   XY=             -3.7257   XZ=             -6.4740   YZ=             -5.8266

  Exact polarizability:      98.266       7.228      94.235       9.141     -20.390      65.637
 Approx polarizability:      94.105       6.610      89.790       8.776     -19.108      63.161

                      1                      2                      3
                      A                      A                      A
 Frequencies --    399.5041               427.4972               596.7628
 Red. masses --      2.8010                 3.5408                 6.3750
 Frc consts  --      0.2634                 0.3813                 1.3376
 IR Inten    --      0.0155                10.0694                 1.0692

                      4                      5                      6
                      A                      A                      A
 Frequencies --    615.0364               676.5777               728.3310
 Red. masses --      6.8706                 2.4086                 1.3784
 Frc consts  --      1.5313                 0.6496                 0.4308
 IR Inten    --      1.2873                46.9394               137.3264

                      7                      8                      9
                      A                      A                      A
 Frequencies --    840.5841               913.4077               981.2057
 Red. masses --      1.2488                 1.3198                 6.8821
 Frc consts  --      0.5199                 0.6488                 3.9038
 IR Inten    --      0.0002                 0.9581                 0.4682

                     10                     11                     12
                      A                      A                      A
 Frequencies --    994.6034              1016.4978              1029.5854
 Red. masses --      1.3875                 1.3086                 4.5679
 Frc consts  --      0.8087                 0.7967                 2.8529
 IR Inten    --      0.0444                 0.0768                 1.2127

                     13                     14                     15
                      A                      A                      A
 Frequencies --   1057.4729              1077.9190              1162.0670
 Red. masses --      1.8503                 1.5260                 1.1250
 Frc consts  --      1.2191                 1.0446                 0.8951
 IR Inten    --     23.3132                12.7104                 0.0331

                     16                     17                     18
                      A                      A                      A
 Frequencies --   1167.6831              1297.9262              1316.2413
 Red. masses --      1.1245                 1.8661                 2.5027
 Frc consts  --      0.9034                 1.8522                 2.5546
 IR Inten    --      0.0337                 0.1959                 0.3722

                     19                     20                     21
                      A                      A                      A
 Frequencies --   1465.0462              1481.5258              1603.2453
 Red. masses --      2.1853                 2.2159                 5.4808
 Frc consts  --      2.7636                 2.8656                 8.3003
 IR Inten    --      9.5968                16.2033                 3.2463

                     22                     23                     24
                      A                      A                      A
 Frequencies --   1660.4027              3196.6396              3200.2135
 Red. masses --      7.0144                 1.0866                 1.0874
 Frc consts  --     11.3937                 6.5417                 6.5611
 IR Inten    --      4.7588                 0.2208                 1.8575

                     25                     26                     27
                      A                      A                      A
 Frequencies --   3210.0958              3213.0733              3223.9028
 Red. masses --      1.0928                 1.0954                 1.0986
 Frc consts  --      6.6347                 6.6629                 6.7276
 IR Inten    --      1.1012                 6.7614                 6.0805

 - Thermochemistry -
 -------------------
 Temperature   298.150 Kelvin.  Pressure   1.00000 Atm.
 Atom     1 has atomic number  6 and mass  12.00000

 Molecular mass:    77.03913 amu.
 Principal axes and moments of inertia in atomic units:
                           1         2         3
     Eigenvalues --   285.96126 320.49415 606.45541
           X            0.40866   0.88016  -0.24149
           Y            0.84807  -0.26841   0.45686
           Z           -0.33729   0.39151   0.85613
 This molecule is an asymmetric top.
 Rotational symmetry number  1.
 Rotational temperatures (Kelvin)      0.30289     0.27025     0.14282
 Rotational constants (GHZ):           6.31114     5.63112     2.97588
 Zero-point vibrational energy     230598.4 (Joules/Mol)
                                   55.11435 (Kcal/Mol)
 Warning -- explicit consideration of   4 degrees of freedom as
           vibrations may cause significant error
 Vibrational temperatures:    574.80   615.07   858.61   884.90   973.44
          (Kelvin)           1047.91  1209.41  1314.19  1411.74  1431.01
                             1462.51  1481.34  1521.47  1550.88  1671.96
                             1680.04  1867.43  1893.78  2107.87  2131.59
                             2306.71  2388.95  4599.25  4604.39  4618.61
                             4622.90  4638.48

 Zero-point correction=                           0.087830 (Hartree/Particle)
 Thermal correction to Energy=                    0.092191
 Thermal correction to Enthalpy=                  0.093135
 Thermal correction to Gibbs Free Energy=         0.059797
 Sum of electronic and zero-point Energies=           -231.432898
 Sum of electronic and thermal Energies=              -231.428538
 Sum of electronic and thermal Enthalpies=            -231.427593
 Sum of electronic and thermal Free Energies=         -231.460932

                     E (Thermal)             CV                S
                      KCal/Mol        Cal/Mol-Kelvin    Cal/Mol-Kelvin
 Total                   57.851             16.712             70.167
 Electronic               0.000              0.000              1.377
 Translational            0.889              2.981             38.940
 Rotational               0.889              2.981             25.522
 Vibrational             56.073             10.750              4.327
 Vibration     1          0.766              1.471              0.964
 Vibration     2          0.789              1.410              0.867
 Vibration     3          0.955              1.039              0.455
 Vibration     4          0.975              1.000              0.425

 Optimization completed.
    -- Stationary point found.
 Normal termination of Gaussian 16 at Mon May  5 08:14:55 2025.
