 Gaussian 16, Revision C.01,
 Gaussian 16:  AS64L-G16RevC.01  3-Jul-2019

 ----------------------------------------------------------------------
 # opt=(calcfc,tight) freq 6-311+g(d,p) scrf=(smd,solvent=thf) nosymm s
 cf=(qc,fermi,xqc) geom=connectivity int=ultrafine m062x
 ----------------------------------------------------------------------

 -------------------
 phboh2-opt-freq-thf
 -------------------
 Symbolic Z-matrix:
 Charge =  0 Multiplicity = 1

 SCF Done:  E(RM062X) =  -408.237699069     A.U. after   13 cycles
 SCF Done:  E(RM062X) =  -408.237746854     A.U. after   10 cycles
 SCF Done:  E(RM062X) =  -408.237746863     A.U. after    7 cycles
 SCF Done:  E(RM062X) =  -408.237746864     A.U. after    6 cycles
 Optimization completed.
    -- Stationary point found.
 Normal termination of Gaussian 16 at Mon Apr 21 12:02:29 2025.

 ----------------------------------------------------------------------
 #N Geom=AllCheck Guess=TCheck SCRF=Check GenChk RM062X/6-311+G(d,p) Fr
 eq
 ----------------------------------------------------------------------

 Structure from the checkpoint file:  "phboh2-opt-freq-thf.chk"
 -------------------
 phboh2-opt-freq-thf
 -------------------
 Charge =  0 Multiplicity = 1

                          Input orientation:
 ---------------------------------------------------------------------
 Center     Atomic      Atomic             Coordinates (Angstroms)
 Number     Number       Type             X           Y           Z
 ---------------------------------------------------------------------
      1          8           0        8.693580    7.459810    5.559758
      2          1           0        9.506557    7.143956    5.970607
      3          6           0        6.246137    6.999695    5.173709
      4          5           0        7.643048    6.615556    5.776200
      5          8           0        7.877832    5.484540    6.508831
      6          1           0        7.104131    4.929810    6.645869
      7          6           0        5.122039    6.173343    5.296421
      8          1           0        5.186360    5.222834    5.819707
      9          6           0        3.894525    6.540704    4.753302
     10          1           0        3.036562    5.886528    4.858756
     11          6           0        3.771406    7.749636    4.073611
     12          6           0        4.876910    8.586124    3.939023
     13          1           0        4.783416    9.527713    3.409757
     14          6           0        6.100429    8.210826    4.483652
     15          1           0        6.959685    8.864070    4.376104
     16          1           0        2.816177    8.038771    3.649755
 ---------------------------------------------------------------------

 SCF Done:  E(RM062X) =  -408.237746864     A.U. after    1 cycles

 Alpha  occ. eigenvalues --  -19.63557 -19.62994 -10.54885 -10.54648 -10.54407
 Alpha  occ. eigenvalues --  -10.54382 -10.54243 -10.53045  -7.08301  -1.16584
 Alpha  occ. eigenvalues --   -1.12894  -0.96133  -0.84475  -0.84403  -0.69449
 Alpha  occ. eigenvalues --   -0.68654  -0.64916  -0.62701  -0.58851  -0.53114
 Alpha  occ. eigenvalues --   -0.51672  -0.49986  -0.48812  -0.47906  -0.45443
 Alpha  occ. eigenvalues --   -0.44663  -0.43874  -0.40392  -0.39913  -0.38012
 Alpha  occ. eigenvalues --   -0.31297  -0.31127
 Alpha virt. eigenvalues --   -0.00448   0.00128   0.01634   0.02178   0.02401
 Alpha virt. eigenvalues --    0.03210   0.04181   0.04640   0.05707   0.07872
 Alpha virt. eigenvalues --    0.08080   0.08107   0.09596   0.11186   0.11267

 Mulliken charges:
               1
     1  O   -0.420946
     2  H    0.330862
     3  C   -0.357645
     4  B    0.511355
     5  O   -0.414313
     6  H    0.284458
     7  C   -0.181945
     8  H    0.169364
     9  C   -0.112328
    10  H    0.189391
    11  C   -0.194332
    12  C   -0.130790
    13  H    0.190053
    14  C   -0.250040
    15  H    0.194993
    16  H    0.191862
 Sum of Mulliken charges =   0.00000

 Dipole moment (field-independent basis, Debye):
    X=             -1.3400    Y=             -1.2045    Z=              0.3945  Tot=              1.8445
 Quadrupole moment (field-independent basis, Debye-Ang):
   XX=            -62.7288   YY=            -65.2178   ZZ=            -49.7251
   XY=            -15.6428   XZ=             -2.0212   YZ=             -7.8027

  Exact polarizability:     134.261       3.874     114.673      17.077     -25.310      84.612
 Approx polarizability:     124.174       5.287     110.901      13.267     -22.500      82.620

                      1                      2                      3
                      A                      A                      A
 Frequencies --     40.6660               138.8535               175.6712
 Red. masses --      4.6654                 4.5314                 4.9322
 Frc consts  --      0.0045                 0.0515                 0.0897
 IR Inten    --      3.6116                 1.7837                 3.8310

                      4                      5                      6
                      A                      A                      A
 Frequencies --    334.7886               402.3579               411.1372
 Red. masses --      5.8565                 2.5458                 3.2419
 Frc consts  --      0.3867                 0.2428                 0.3229
 IR Inten    --      8.9412                14.4275                 2.7182

                      7                      8                      9
                      A                      A                      A
 Frequencies --    421.8979               468.8766               533.0184
 Red. masses --      4.5145                 1.1538                 3.8572
 Frc consts  --      0.4734                 0.1494                 0.6457
 IR Inten    --      7.3962               233.0557                53.2083

                     10                     11                     12
                      A                      A                      A
 Frequencies --    545.5203               629.2638               654.5981
 Red. masses --      1.2619                 6.3783                 4.3396
 Frc consts  --      0.2213                 1.4881                 1.0956
 IR Inten    --     14.0594                 0.1090               149.1815

                     13                     14                     15
                      A                      A                      A
 Frequencies --    712.8925               733.2576               785.1699
 Red. masses --      1.6540                 5.4357                 2.1788
 Frc consts  --      0.4953                 1.7220                 0.7914
 IR Inten    --    103.5315                 7.3194                14.8161

                     16                     17                     18
                      A                      A                      A
 Frequencies --    882.6766               959.0529               990.4626
 Red. masses --      1.2512                 1.3769                 1.5071
 Frc consts  --      0.5744                 0.7462                 0.8711
 IR Inten    --      0.0060                 1.3040               138.3929

                     19                     20                     21
                      A                      A                      A
 Frequencies --   1015.2169              1015.9553              1030.3409
 Red. masses --      2.7054                 1.8378                 1.4918
 Frc consts  --      1.6428                 1.1176                 0.9331
 IR Inten    --      6.4488                 5.5816               166.4756

                     22                     23                     24
                      A                      A                      A
 Frequencies --   1031.4347              1057.0943              1108.9473
 Red. masses --      1.3261                 2.4005                 1.6262
 Frc consts  --      0.8312                 1.5805                 1.1783
 IR Inten    --     12.9043                 9.0082                14.5110

                     25                     26                     27
                      A                      A                      A
 Frequencies --   1133.4849              1168.9401              1207.9959
 Red. masses --      2.2632                 1.1175                 1.1315
 Frc consts  --      1.7132                 0.8997                 0.9728
 IR Inten    --     82.2594                 0.1471                 3.3706

                     28                     29                     30
                      A                      A                      A
 Frequencies --   1304.2286              1353.2862              1373.5803
 Red. masses --      4.6007                 1.4668                 4.2591
 Frc consts  --      4.6109                 1.5827                 4.7345
 IR Inten    --     17.8303                 2.7787               677.1760

                     31                     32                     33
                      A                      A                      A
 Frequencies --   1397.7923              1475.3352              1538.4855
 Red. masses --      5.5233                 2.3944                 2.3823
 Frc consts  --      6.3582                 3.0707                 3.3223
 IR Inten    --    375.2377                96.2342                15.2966

                     34                     35                     36
                      A                      A                      A
 Frequencies --   1643.3534              1672.1464              3175.4473
 Red. masses --      5.6138                 5.8840                 1.0890
 Frc consts  --      8.9324                 9.6933                 6.4697
 IR Inten    --      2.5458                41.6518                17.7398

                     37                     38                     39
                      A                      A                      A
 Frequencies --   3198.2289              3207.1349              3214.4581
 Red. masses --      1.0870                 1.0907                 1.0951
 Frc consts  --      6.5512                 6.6099                 6.6669
 IR Inten    --      0.0225                 3.1518                18.4995

                     40                     41                     42
                      A                      A                      A
 Frequencies --   3222.8988              3854.1241              3884.2331
 Red. masses --      1.0991                 1.0652                 1.0660
 Frc consts  --      6.7264                 9.3224                 9.4757
 IR Inten    --      8.5972               186.8796               128.7116

 - Thermochemistry -
 -------------------
 Temperature   298.150 Kelvin.  Pressure   1.00000 Atm.
 Atom     1 has atomic number  8 and mass  15.99491

 Molecular mass:   122.05391 amu.
 Principal axes and moments of inertia in atomic units:
                           1         2         3
     Eigenvalues --   488.472951600.445892088.44104
           X            0.88629   0.39832  -0.23628
           Y           -0.25394   0.84462   0.47132
           Z            0.38730  -0.35772   0.84972
 This molecule is an asymmetric top.
 Rotational symmetry number  1.
 Warning -- assumption of classical behavior for rotation
           may cause significant error
 Rotational temperatures (Kelvin)      0.17732     0.05412     0.04147
 Rotational constants (GHZ):           3.69466     1.12765     0.86416
 Zero-point vibrational energy     329596.9 (Joules/Mol)
                                   78.77556 (Kcal/Mol)
 Warning -- explicit consideration of  10 degrees of freedom as
           vibrations may cause significant error
 Vibrational temperatures:     58.51   199.78   252.75   481.69   578.90
          (Kelvin)            591.53   607.02   674.61   766.89   784.88
                              905.37   941.82  1025.69  1054.99  1129.68
                             1269.97  1379.86  1425.05  1460.67  1461.73
                             1482.43  1484.00  1520.92  1595.53  1630.83
                             1681.84  1738.04  1876.49  1947.08  1976.28
                             2011.11  2122.68  2213.54  2364.42  2405.85
                             4568.76  4601.54  4614.35  4624.89  4637.03
                             5545.22  5588.55

 Zero-point correction=                           0.125537 (Hartree/Particle)
 Thermal correction to Energy=                    0.133403
 Thermal correction to Enthalpy=                  0.134347
 Thermal correction to Gibbs Free Energy=         0.092475
 Sum of electronic and zero-point Energies=           -408.112210
 Sum of electronic and thermal Energies=              -408.104344
 Sum of electronic and thermal Enthalpies=            -408.103399
 Sum of electronic and thermal Free Energies=         -408.145272

                     E (Thermal)             CV                S
                      KCal/Mol        Cal/Mol-Kelvin    Cal/Mol-Kelvin
 Total                   83.712             30.192             88.129
 Electronic               0.000              0.000              0.000
 Translational            0.889              2.981             40.312
 Rotational               0.889              2.981             28.881
 Vibrational             81.934             24.230             18.936
 Vibration     1          0.594              1.981              5.226
 Vibration     2          0.614              1.914              2.820
 Vibration     3          0.628              1.872              2.374
 Vibration     4          0.716              1.606              1.237
 Vibration     5          0.768              1.465              0.954
 Vibration     6          0.775              1.446              0.923
 Vibration     7          0.784              1.423              0.886
 Vibration     8          0.826              1.319              0.741
 Vibration     9          0.888              1.177              0.581
 Vibration    10          0.901              1.149              0.554

 Optimization completed.
    -- Stationary point found.
 Normal termination of Gaussian 16 at Mon Apr 21 12:03:38 2025.
