 Gaussian 16, Revision C.01,
 Gaussian 16:  AS64L-G16RevC.01  3-Jul-2019

 ----------------------------------------------------------------------
 # opt=(calcfc,tight) freq 6-311+g(d,p) scrf=(smd,solvent=thf) nosymm s
 cf=(qc,fermi,xqc) geom=connectivity int=ultrafine m062x
 ----------------------------------------------------------------------

 ---------------------
 3-OMe-ph-opt-freq-thf
 ---------------------
 Symbolic Z-matrix:
 Charge =  0 Multiplicity = 2

 SCF Done:  E(UM062X) =  -346.030600721     A.U. after   17 cycles
 SCF Done:  E(UM062X) =  -346.035331895     A.U. after   15 cycles
 SCF Done:  E(UM062X) =  -346.035353194     A.U. after   11 cycles
 SCF Done:  E(UM062X) =  -346.035353285     A.U. after    8 cycles
 Optimization completed.
    -- Stationary point found.
 Normal termination of Gaussian 16 at Fri May  9 07:59:30 2025.

 ----------------------------------------------------------------------
 #N Geom=AllCheck Guess=TCheck SCRF=Check GenChk UM062X/6-311+G(d,p) Fr
 eq
 ----------------------------------------------------------------------

 Structure from the checkpoint file:  "3-OMe-ph-opt-freq-thf.chk"
 ---------------------
 3-OMe-ph-opt-freq-thf
 ---------------------
 Charge =  0 Multiplicity = 2

                          Input orientation:
 ---------------------------------------------------------------------
 Center     Atomic      Atomic             Coordinates (Angstroms)
 Number     Number       Type             X           Y           Z
 ---------------------------------------------------------------------
      1          6           0        6.161533    6.898261    5.206623
      2          6           0        5.157471    6.021634    5.552123
      3          1           0        5.307704    5.194957    6.235732
      4          6           0        3.916944    6.264157    4.961459
      5          1           0        3.079255    5.613195    5.187809
      6          6           0        3.726858    7.330615    4.081408
      7          6           0        4.791695    8.183017    3.774742
      8          6           0        6.053382    7.961837    4.355311
      9          1           0        6.878727    8.623713    4.116834
     10          1           0        2.749797    7.485932    3.644409
     11          8           0        4.704919    9.240310    2.935917
     12          6           0        3.448407    9.502613    2.326970
     13          1           0        3.596094   10.381279    1.702557
     14          1           0        3.130567    8.662331    1.703418
     15          1           0        2.683803    9.715324    3.079241
 ---------------------------------------------------------------------

 SCF Done:  E(UM062X) =  -346.035353285     A.U. after    1 cycles

 Alpha  occ. eigenvalues --  -19.65738 -10.61498 -10.58251 -10.57085 -10.55396
 Alpha  occ. eigenvalues --  -10.54670 -10.54460 -10.54299  -1.19865  -0.97074
 Alpha  occ. eigenvalues --   -0.86306  -0.84649  -0.79108  -0.69867  -0.66819
 Alpha  occ. eigenvalues --   -0.60919  -0.56495  -0.56160  -0.54976  -0.50646
 Alpha  occ. eigenvalues --   -0.48456  -0.46696  -0.45783  -0.44407  -0.40545
 Alpha  occ. eigenvalues --   -0.39961  -0.32166  -0.30509  -0.28374
 Alpha virt. eigenvalues --    0.01276   0.01866   0.02821   0.03066   0.03430
 Alpha virt. eigenvalues --    0.05039   0.05114   0.05428   0.06290   0.07981
 Alpha virt. eigenvalues --    0.08431   0.08663   0.09619   0.10748   0.11988

  Beta  occ. eigenvalues --  -19.65721 -10.61405 -10.58248 -10.56126 -10.55312
  Beta  occ. eigenvalues --  -10.54685 -10.54465 -10.54328  -1.19778  -0.96181
  Beta  occ. eigenvalues --   -0.85966  -0.83293  -0.78903  -0.69225  -0.65616
  Beta  occ. eigenvalues --   -0.59913  -0.56101  -0.55617  -0.54913  -0.50023
  Beta  occ. eigenvalues --   -0.47924  -0.45318  -0.45308  -0.43927  -0.40138
  Beta  occ. eigenvalues --   -0.39494  -0.31129  -0.28383
  Beta virt. eigenvalues --   -0.05073   0.01579   0.01860   0.03082   0.03569
  Beta virt. eigenvalues --    0.03782   0.05089   0.05185   0.05621   0.06685
  Beta virt. eigenvalues --    0.07933   0.08593   0.09256   0.09540   0.10949

 Mulliken charges and spin densities:
               1          2
     1  C    0.159845   0.816692
     2  C   -0.375996   0.101358
     3  H    0.200573   0.016265
     4  C   -0.369686   0.016089
     5  H    0.197900   0.007163
     6  C    0.427816  -0.014738
     7  C   -0.392381   0.035979
     8  C   -0.310026  -0.006324
     9  H    0.199529   0.020018
    10  H    0.197663   0.002975
    11  O   -0.152831   0.001184
    12  C   -0.346354   0.003219
    13  H    0.196359   0.000164
    14  H    0.183876  -0.000021
    15  H    0.183713  -0.000022
 Sum of Mulliken charges =   0.00000   1.00000

 Dipole moment (field-independent basis, Debye):
    X=             -2.8639    Y=              0.2052    Z=             -1.0862  Tot=              3.0698
 Quadrupole moment (field-independent basis, Debye-Ang):
   XX=            -70.4408   YY=            -42.0726   ZZ=            -55.6930
   XY=            -21.3986   XZ=            -14.1220   YZ=            -12.2648

  Exact polarizability:     115.219       2.981     110.459      13.228     -31.887      96.438
 Approx polarizability:     109.981       6.383     104.649       9.423     -27.537      90.233

                      1                      2                      3
                      A                      A                      A
 Frequencies --     93.2051               215.9468               270.3052
 Red. masses --      3.2937                 2.4040                 3.1233
 Frc consts  --      0.0169                 0.0661                 0.1345
 IR Inten    --      4.9291                 0.4850                 2.8282

                      4                      5                      6
                      A                      A                      A
 Frequencies --    287.3213               429.8282               453.3885
 Red. masses --      1.3128                 3.2483                 4.8618
 Frc consts  --      0.0639                 0.3536                 0.5888
 IR Inten    --      0.7275                 6.1458                 0.8321

                      7                      8                      9
                      A                      A                      A
 Frequencies --    539.8351               557.3145               617.6581
 Red. masses --      4.4328                 5.0801                 7.1667
 Frc consts  --      0.7611                 0.9297                 1.6109
 IR Inten    --      1.1029                15.1232                 4.8547

                     10                     11                     12
                      A                      A                      A
 Frequencies --    669.7594               765.2889               801.5512
 Red. masses --      2.1780                 1.3876                 6.1251
 Frc consts  --      0.5756                 0.4788                 2.3186
 IR Inten    --     43.1409                96.9583                20.5776

                     13                     14                     15
                      A                      A                      A
 Frequencies --    853.7533               885.0361               988.6685
 Red. masses --      1.4704                 1.4467                 4.3277
 Frc consts  --      0.6315                 0.6677                 2.4923
 IR Inten    --     28.7303                12.8779                 0.3199

                     16                     17                     18
                      A                      A                      A
 Frequencies --    993.0150              1060.2784              1085.2612
 Red. masses --      1.3222                 2.5655                 3.3606
 Frc consts  --      0.7681                 1.6993                 2.3321
 IR Inten    --      0.1431                 1.0328                96.2143

                     19                     20                     21
                      A                      A                      A
 Frequencies --   1099.0952              1176.0528              1182.7224
 Red. masses --      1.5117                 1.1413                 1.2774
 Frc consts  --      1.0759                 0.9301                 1.0528
 IR Inten    --     11.1009                 6.7690                 1.4860

                     22                     23                     24
                      A                      A                      A
 Frequencies --   1213.4146              1250.7806              1303.0405
 Red. masses --      1.4126                 2.0317                 2.8192
 Frc consts  --      1.2254                 1.8727                 2.8203
 IR Inten    --     16.9244               137.5436                64.4491

                     25                     26                     27
                      A                      A                      A
 Frequencies --   1325.7339              1461.1691              1473.7275
 Red. masses --      3.0463                 2.6906                 1.4106
 Frc consts  --      3.1545                 3.3845                 1.8051
 IR Inten    --    196.2022                 0.9294               113.7636

                     28                     29                     30
                      A                      A                      A
 Frequencies --   1497.4854              1507.0800              1515.7308
 Red. masses --      1.0453                 1.0718                 1.9983
 Frc consts  --      1.3811                 1.4343                 2.7049
 IR Inten    --     18.9349                58.5217               143.2798

                     31                     32                     33
                      A                      A                      A
 Frequencies --   1602.9712              1663.2959              3053.5300
 Red. masses --      6.6460                 7.2043                 1.0338
 Frc consts  --     10.0615                11.7431                 5.6793
 IR Inten    --     41.2286               182.1422                46.6666

                     34                     35                     36
                      A                      A                      A
 Frequencies --   3124.5534              3179.4303              3199.9264
 Red. masses --      1.1074                 1.1022                 1.0886
 Frc consts  --      6.3696                 6.5648                 6.5677
 IR Inten    --     31.1808                16.9633                 4.5103

                     37                     38                     39
                      A                      A                      A
 Frequencies --   3205.8200              3220.8325              3243.3486
 Red. masses --      1.0912                 1.0945                 1.0927
 Frc consts  --      6.6076                 6.6894                 6.7726
 IR Inten    --      1.5200                 1.3248                 0.7941

 - Thermochemistry -
 -------------------
 Temperature   298.150 Kelvin.  Pressure   1.00000 Atm.
 Atom     1 has atomic number  6 and mass  12.00000

 Molecular mass:   107.04969 amu.
 Principal axes and moments of inertia in atomic units:
                           1         2         3
     Eigenvalues --   342.002111121.261551451.74207
           X           -0.29360   0.92262  -0.25015
           Y            0.71006   0.38569   0.58912
           Z           -0.64001   0.00466   0.76835
 This molecule is an asymmetric top.
 Rotational symmetry number  1.
 Rotational temperatures (Kelvin)      0.25326     0.07725     0.05966
 Rotational constants (GHZ):           5.27699     1.60956     1.24316
 Zero-point vibrational energy     317412.1 (Joules/Mol)
                                   75.86331 (Kcal/Mol)
 Warning -- explicit consideration of   9 degrees of freedom as
           vibrations may cause significant error
 Vibrational temperatures:    134.10   310.70   388.91   413.39   618.43
          (Kelvin)            652.32   776.70   801.85   888.67   963.63
                             1101.08  1153.25  1228.36  1273.37  1422.47
                             1428.73  1525.50  1561.45  1581.35  1692.08
                             1701.67  1745.83  1799.59  1874.78  1907.44
                             2102.30  2120.37  2154.55  2168.35  2180.80
                             2306.32  2393.11  4393.35  4495.54  4574.49
                             4603.98  4612.46  4634.06  4666.46

 Zero-point correction=                           0.120896 (Hartree/Particle)
 Thermal correction to Energy=                    0.127670
 Thermal correction to Enthalpy=                  0.128615
 Thermal correction to Gibbs Free Energy=         0.089308
 Sum of electronic and zero-point Energies=           -345.914457
 Sum of electronic and thermal Energies=              -345.907683
 Sum of electronic and thermal Enthalpies=            -345.906739
 Sum of electronic and thermal Free Energies=         -345.946045

                     E (Thermal)             CV                S
                      KCal/Mol        Cal/Mol-Kelvin    Cal/Mol-Kelvin
 Total                   80.114             25.766             82.727
 Electronic               0.000              0.000              1.377
 Translational            0.889              2.981             39.921
 Rotational               0.889              2.981             27.812
 Vibrational             78.337             19.804             13.617
 Vibration     1          0.602              1.954              3.592
 Vibration     2          0.645              1.817              1.993
 Vibration     3          0.674              1.728              1.594
 Vibration     4          0.684              1.697              1.490
 Vibration     5          0.791              1.405              0.859
 Vibration     6          0.812              1.353              0.786
 Vibration     7          0.895              1.162              0.566
 Vibration     8          0.913              1.124              0.529
 Vibration     9          0.977              0.995              0.420

 Optimization completed.
    -- Stationary point found.
 Normal termination of Gaussian 16 at Fri May  9 08:01:08 2025.
