 Gaussian 16, Revision C.01,
 Gaussian 16:  AS64L-G16RevC.01  3-Jul-2019

 ----------------------------------------------------------------------
 # opt=(calcfc,tight) freq 6-311+g(d,p) scrf=(smd,solvent=thf) nosymm s
 cf=(qc,fermi,xqc) geom=connectivity int=ultrafine m062x guess=read
 ----------------------------------------------------------------------

 ---------------------------
 3-OMe-ph-anion-opt-freq-thf
 ---------------------------
 Symbolic Z-matrix:
 Charge = -1 Multiplicity = 1

 SCF Done:  E(RM062X) =  -346.157404163     A.U. after    1 cycles
 SCF Done:  E(RM062X) =  -346.157404163     A.U. after    5 cycles
 Optimization completed.
    -- Stationary point found.
 Normal termination of Gaussian 16 at Mon Jun  2 11:46:18 2025.

 ----------------------------------------------------------------------
 #N Geom=AllCheck Guess=TCheck SCRF=Check GenChk RM062X/6-311+G(d,p) Fr
 eq
 ----------------------------------------------------------------------

 Structure from the checkpoint file:  "3-OMe-ph-anion-opt-freq-thf-2.chk"
 ---------------------------
 3-OMe-ph-anion-opt-freq-thf
 ---------------------------
 Charge = -1 Multiplicity = 1

                          Input orientation:
 ---------------------------------------------------------------------
 Center     Atomic      Atomic             Coordinates (Angstroms)
 Number     Number       Type             X           Y           Z
 ---------------------------------------------------------------------
      1          6           0        6.305982    6.872862    5.267897
      2          6           0        5.171538    6.057554    5.527289
      3          1           0        5.263199    5.207890    6.205144
      4          6           0        3.918480    6.271329    4.958817
      5          1           0        3.086237    5.611383    5.193928
      6          6           0        3.701951    7.334762    4.075047
      7          6           0        4.782311    8.166709    3.787593
      8          6           0        6.034213    7.926798    4.376655
      9          1           0        6.816189    8.632865    4.091221
     10          1           0        2.723988    7.491662    3.638129
     11          8           0        4.704393    9.241807    2.939667
     12          6           0        3.458479    9.502469    2.328343
     13          1           0        3.601548   10.382330    1.702069
     14          1           0        3.136036    8.664621    1.701026
     15          1           0        2.682611    9.714135    3.071728
 ---------------------------------------------------------------------

 SCF Done:  E(RM062X) =  -346.157404163     A.U. after    1 cycles

 Alpha  occ. eigenvalues --  -19.62237 -10.56173 -10.56108 -10.50325 -10.50055
 Alpha  occ. eigenvalues --  -10.48266 -10.48263 -10.44922  -1.15992  -0.90385
 Alpha  occ. eigenvalues --   -0.81240  -0.77862  -0.74652  -0.63798  -0.61802
 Alpha  occ. eigenvalues --   -0.56198  -0.52036  -0.51027  -0.50906  -0.45151
 Alpha  occ. eigenvalues --   -0.43997  -0.41087  -0.41019  -0.37932  -0.35236
 Alpha  occ. eigenvalues --   -0.34752  -0.25498  -0.23770  -0.19491
 Alpha virt. eigenvalues --    0.03409   0.04655   0.05331   0.05888   0.06605
 Alpha virt. eigenvalues --    0.06811   0.07633   0.07905   0.08158   0.10252
 Alpha virt. eigenvalues --    0.10421   0.10687   0.11951   0.12350   0.14106

 Mulliken charges:
               1
     1  C   -1.081194
     2  C    0.015366
     3  H    0.143935
     4  C   -0.506379
     5  H    0.161446
     6  C    0.412352
     7  C   -0.397061
     8  C   -0.051905
     9  H    0.144046
    10  H    0.170405
    11  O   -0.186382
    12  C   -0.348104
    13  H    0.183061
    14  H    0.170408
    15  H    0.170004
 Sum of Mulliken charges =  -1.00000

 Dipole moment (field-independent basis, Debye):
    X=            -32.1929    Y=            -33.2290    Z=            -25.7674  Tot=             52.9576
 Quadrupole moment (field-independent basis, Debye-Ang):
   XX=           -263.6448   YY=           -283.6234   ZZ=           -190.9744
   XY=           -224.5981   XZ=           -168.6780   YZ=           -180.4038

  Exact polarizability:     151.386      -1.026     126.484      21.425     -30.273     117.611
 Approx polarizability:     129.932       4.331     115.579      12.408     -24.839     104.315

                      1                      2                      3
                      A                      A                      A
 Frequencies --     83.2200               209.5248               278.2959
 Red. masses --      3.3167                 2.4611                 3.0858
 Frc consts  --      0.0135                 0.0637                 0.1408
 IR Inten    --      0.0106                 0.1114                 0.1735

                      4                      5                      6
                      A                      A                      A
 Frequencies --    288.8909               415.5212               445.8804
 Red. masses --      1.2783                 3.4284                 4.9125
 Frc consts  --      0.0629                 0.3488                 0.5754
 IR Inten    --      1.5500                16.5435                 3.8123

                      7                      8                      9
                      A                      A                      A
 Frequencies --    516.5683               569.1983               617.2018
 Red. masses --      3.6807                 5.0990                 7.3804
 Frc consts  --      0.5787                 0.9733                 1.6565
 IR Inten    --      0.4882                16.7965                 4.6121

                     10                     11                     12
                      A                      A                      A
 Frequencies --    719.2828               782.4930               801.6870
 Red. masses --      2.2975                 1.6696                 6.0399
 Frc consts  --      0.7003                 0.6023                 2.2871
 IR Inten    --     34.5245                84.5738                19.9582

                     13                     14                     15
                      A                      A                      A
 Frequencies --    869.5805               922.6274               989.3115
 Red. masses --      1.2941                 1.3820                 1.3358
 Frc consts  --      0.5766                 0.6931                 0.7703
 IR Inten    --      0.2054                 8.3871                 0.0379

                     16                     17                     18
                      A                      A                      A
 Frequencies --   1001.4004              1031.9995              1072.3724
 Red. masses --      6.0193                 3.5729                 3.5148
 Frc consts  --      3.5564                 2.2420                 2.3815
 IR Inten    --      0.3183                 5.9497                89.3910

                     19                     20                     21
                      A                      A                      A
 Frequencies --   1125.1516              1181.0572              1185.0982
 Red. masses --      1.5889                 1.2823                 1.1823
 Frc consts  --      1.1851                 1.0538                 0.9784
 IR Inten    --     28.0431                 1.5868                 4.1979

                     22                     23                     24
                      A                      A                      A
 Frequencies --   1205.5902              1233.6823              1298.5143
 Red. masses --      1.5230                 3.2202                 3.8620
 Frc consts  --      1.3042                 2.8876                 3.8366
 IR Inten    --     44.7610                96.1401               279.9100

                     25                     26                     27
                      A                      A                      A
 Frequencies --   1331.7387              1417.9954              1469.0765
 Red. masses --      1.4138                 2.7645                 1.5583
 Frc consts  --      1.4773                 3.2751                 1.9814
 IR Inten    --     11.7363                44.8685                42.8064

                     28                     29                     30
                      A                      A                      A
 Frequencies --   1493.9727              1495.6317              1508.3495
 Red. masses --      1.4821                 1.0443                 1.0497
 Frc consts  --      1.9490                 1.3764                 1.4070
 IR Inten    --     16.7129                12.6449                38.8460

                     31                     32                     33
                      A                      A                      A
 Frequencies --   1608.2461              1610.7312              3035.9286
 Red. masses --      4.9037                 6.3294                 1.0344
 Frc consts  --      7.4727                 9.6752                 5.6175
 IR Inten    --    149.9932                42.8180                68.3710

                     34                     35                     36
                      A                      A                      A
 Frequencies --   3098.1187              3107.2381              3111.7878
 Red. masses --      1.1061                 1.0861                 1.0869
 Frc consts  --      6.2552                 6.1782                 6.2011
 IR Inten    --     48.8539                71.4328                60.0488

                     37                     38                     39
                      A                      A                      A
 Frequencies --   3159.1510              3160.3331              3225.2243
 Red. masses --      1.0987                 1.0931                 1.0920
 Frc consts  --      6.4608                 6.4325                 6.6924
 IR Inten    --     62.0866                33.2758                 9.5196

 - Thermochemistry -
 -------------------
 Temperature   298.150 Kelvin.  Pressure   1.00000 Atm.
 Atom     1 has atomic number  6 and mass  12.00000

 Molecular mass:   107.04969 amu.
 Principal axes and moments of inertia in atomic units:
                           1         2         3
     Eigenvalues --   349.273661127.704901465.50924
           X           -0.31548   0.91560  -0.24931
           Y            0.70105   0.40194   0.58905
           Z           -0.63954  -0.01105   0.76868
 This molecule is an asymmetric top.
 Rotational symmetry number  1.
 Rotational temperatures (Kelvin)      0.24798     0.07681     0.05910
 Rotational constants (GHZ):           5.16713     1.60037     1.23148
 Zero-point vibrational energy     315082.5 (Joules/Mol)
                                   75.30651 (Kcal/Mol)
 Warning -- explicit consideration of   9 degrees of freedom as
           vibrations may cause significant error
 Vibrational temperatures:    119.74   301.46   400.41   415.65   597.84
          (Kelvin)            641.52   743.23   818.95   888.02  1034.89
                             1125.83  1153.45  1251.13  1327.46  1423.40
                             1440.79  1484.82  1542.90  1618.84  1699.28
                             1705.09  1734.58  1774.99  1868.27  1916.07
                             2040.18  2113.67  2149.49  2151.88  2170.18
                             2313.91  2317.48  4368.02  4457.50  4470.62
                             4477.17  4545.31  4547.01  4640.38

 Zero-point correction=                           0.120009 (Hartree/Particle)
 Thermal correction to Energy=                    0.126795
 Thermal correction to Enthalpy=                  0.127739
 Thermal correction to Gibbs Free Energy=         0.088965
 Sum of electronic and zero-point Energies=           -346.037396
 Sum of electronic and thermal Energies=              -346.030609
 Sum of electronic and thermal Enthalpies=            -346.029665
 Sum of electronic and thermal Free Energies=         -346.068439

                     E (Thermal)             CV                S
                      KCal/Mol        Cal/Mol-Kelvin    Cal/Mol-Kelvin
 Total                   79.565             25.685             81.608
 Electronic               0.000              0.000              0.000
 Translational            0.889              2.981             39.921
 Rotational               0.889              2.981             27.848
 Vibrational             77.788             19.724             13.839
 Vibration     1          0.600              1.961              3.813
 Vibration     2          0.642              1.826              2.048
 Vibration     3          0.679              1.714              1.544
 Vibration     4          0.685              1.694              1.480
 Vibration     5          0.779              1.437              0.907
 Vibration     6          0.805              1.370              0.808
 Vibration     7          0.872              1.213              0.618
 Vibration     8          0.925              1.098              0.506
 Vibration     9          0.977              0.996              0.421

 Optimization completed.
    -- Stationary point found.
 Normal termination of Gaussian 16 at Mon Jun  2 11:47:14 2025.
