 Gaussian 16, Revision C.01,
 Gaussian 16:  AS64L-G16RevC.01  3-Jul-2019

 ----------------------------------------------------------------------
 # opt=(calcfc,tight) freq 6-311+g(d,p) nosymm scf=(qc,fermi,xqc) geom=
 connectivity int=ultrafine m062x
 ----------------------------------------------------------------------

 ---------------------
 3-OMe-phboh2-opt-freq
 ---------------------
 Symbolic Z-matrix:
 Charge =  0 Multiplicity = 1

 SCF Done:  E(RM062X) =  -522.696222094     A.U. after   15 cycles
 SCF Done:  E(RM062X) =  -522.724464431     A.U. after   14 cycles
 SCF Done:  E(RM062X) =  -522.724932452     A.U. after   15 cycles
 SCF Done:  E(RM062X) =  -522.729230031     A.U. after   13 cycles
 SCF Done:  E(RM062X) =  -522.733689500     A.U. after   16 cycles
 SCF Done:  E(RM062X) =  -522.671319669     A.U. after   14 cycles
 SCF Done:  E(RM062X) =  -522.735193221     A.U. after   15 cycles
 SCF Done:  E(RM062X) =  -522.735376433     A.U. after   13 cycles
 SCF Done:  E(RM062X) =  -522.735740825     A.U. after   15 cycles
 SCF Done:  E(RM062X) =  -522.736485296     A.U. after   13 cycles
 SCF Done:  E(RM062X) =  -522.737249866     A.U. after   11 cycles
 SCF Done:  E(RM062X) =  -522.737250768     A.U. after   11 cycles
 SCF Done:  E(RM062X) =  -522.737251239     A.U. after    9 cycles
 SCF Done:  E(RM062X) =  -522.737251940     A.U. after   10 cycles
 SCF Done:  E(RM062X) =  -522.737251905     A.U. after    9 cycles
 SCF Done:  E(RM062X) =  -522.737251963     A.U. after    9 cycles
 SCF Done:  E(RM062X) =  -522.737251974     A.U. after    8 cycles
 SCF Done:  E(RM062X) =  -522.737251980     A.U. after    8 cycles
 SCF Done:  E(RM062X) =  -522.737251980     A.U. after    6 cycles
 Optimization completed.
    -- Stationary point found.
 Normal termination of Gaussian 16 at Wed Apr 23 16:36:18 2025.

 ----------------------------------------------------------------------
 #N Geom=AllCheck Guess=TCheck SCRF=Check GenChk RM062X/6-311+G(d,p) Fr
 eq
 ----------------------------------------------------------------------

 Structure from the checkpoint file:  "3-OMe-phboh2-opt-freq.chk"
 ---------------------
 3-OMe-phboh2-opt-freq
 ---------------------
 Charge =  0 Multiplicity = 1

                          Input orientation:
 ---------------------------------------------------------------------
 Center     Atomic      Atomic             Coordinates (Angstroms)
 Number     Number       Type             X           Y           Z
 ---------------------------------------------------------------------
      1          8           0        8.625164    7.609418    5.611754
      2          1           0        9.465126    7.379964    6.019273
      3          6           0        6.239290    6.886871    5.238140
      4          5           0        7.665719    6.673520    5.853582
      5          8           0        8.009175    5.592974    6.620759
      6          1           0        7.309480    4.946242    6.725404
      7          6           0        5.156858    6.045453    5.537607
      8          1           0        5.268605    5.214945    6.228347
      9          6           0        3.915510    6.267083    4.964243
     10          1           0        3.081870    5.616011    5.200025
     11          6           0        3.718111    7.328378    4.080735
     12          6           0        4.785894    8.172178    3.779000
     13          6           0        6.035658    7.947690    4.360976
     14          1           0        6.849275    8.619628    4.112908
     15          1           0        2.740523    7.482319    3.644137
     16          8           0        4.705698    9.233560    2.935622
     17          6           0        3.459817    9.500223    2.328581
     18          1           0        3.610477   10.377240    1.703418
     19          1           0        3.135010    8.661057    1.705232
     20          1           0        2.691970    9.715809    3.078368
 ---------------------------------------------------------------------

 SCF Done:  E(RM062X) =  -522.737251980     A.U. after    1 cycles

 Alpha  occ. eigenvalues --  -19.65639 -19.63787 -19.62972 -10.60699 -10.59416
 Alpha  occ. eigenvalues --  -10.55020 -10.54849 -10.54537 -10.53970 -10.53172
 Alpha  occ. eigenvalues --   -7.08330  -1.19857  -1.16818  -1.13109  -0.96171
 Alpha  occ. eigenvalues --   -0.86037  -0.84782  -0.79311  -0.69995  -0.68679
 Alpha  occ. eigenvalues --   -0.65115  -0.63310  -0.60237  -0.56347  -0.56174
 Alpha  occ. eigenvalues --   -0.55486  -0.52391  -0.49679  -0.48905  -0.47966
 Alpha  occ. eigenvalues --   -0.45577  -0.45514  -0.45062  -0.43201  -0.40990
 Alpha  occ. eigenvalues --   -0.40429  -0.39590  -0.38049  -0.31341  -0.28176
 Alpha virt. eigenvalues --   -0.00228  -0.00193   0.01221   0.01756   0.02438
 Alpha virt. eigenvalues --    0.03049   0.03302   0.03365   0.04846   0.05293
 Alpha virt. eigenvalues --    0.05984   0.06858   0.07622   0.08789   0.09562

 Mulliken charges:
               1
     1  O   -0.347012
     2  H    0.302258
     3  C   -0.425980
     4  B    0.480937
     5  O   -0.364769
     6  H    0.254434
     7  C   -0.066392
     8  H    0.118793
     9  C   -0.430230
    10  H    0.155839
    11  C    0.521531
    12  C   -0.390523
    13  C   -0.215516
    14  H    0.180956
    15  H    0.156584
    16  O   -0.130205
    17  C   -0.310077
    18  H    0.180921
    19  H    0.164073
    20  H    0.164378
 Sum of Mulliken charges =   0.00000

 Dipole moment (field-independent basis, Debye):
    X=             -2.1578    Y=             -0.9886    Z=             -0.2279  Tot=              2.3844
 Quadrupole moment (field-independent basis, Debye-Ang):
   XX=            -80.2334   YY=            -76.1076   ZZ=            -64.9246
   XY=            -23.4119   XZ=             -6.2703   YZ=            -11.5104

  Exact polarizability:     118.084      -1.736     100.136      19.538     -28.441      90.147
 Approx polarizability:     140.786       6.697     125.712      14.381     -30.767     109.190

                      1                      2                      3
                      A                      A                      A
 Frequencies --     21.2724                76.3068               135.7497
 Red. masses --      5.3844                 3.2597                 5.4615
 Frc consts  --      0.0014                 0.0112                 0.0593
 IR Inten    --      2.4261                 4.0045                 1.8937

                      4                      5                      6
                      A                      A                      A
 Frequencies --    145.5745               216.6308               276.4154
 Red. masses --      4.2496                 2.3136                 3.4420
 Frc consts  --      0.0531                 0.0640                 0.1549
 IR Inten    --      0.0290                 1.5720                 4.7891

                      7                      8                      9
                      A                      A                      A
 Frequencies --    291.0014               312.7410               387.1574
 Red. masses --      1.3513                 5.3731                 5.2504
 Frc consts  --      0.0674                 0.3096                 0.4637
 IR Inten    --      1.4293                 5.0080                 4.5014

                     10                     11                     12
                      A                      A                      A
 Frequencies --    426.1214               470.4541               492.4300
 Red. masses --      3.0641                 1.1555                 4.7449
 Frc consts  --      0.3278                 0.1507                 0.6779
 IR Inten    --      6.1700               136.4468                 5.5757

                     13                     14                     15
                      A                      A                      A
 Frequencies --    516.7825               533.6276               579.7052
 Red. masses --      2.4405                 3.7260                 4.8224
 Frc consts  --      0.3840                 0.6251                 0.9548
 IR Inten    --      4.3129                40.1583                 3.6217

                     16                     17                     18
                      A                      A                      A
 Frequencies --    589.7677               689.2627               711.6330
 Red. masses --      1.5183                 3.6692                 6.1733
 Frc consts  --      0.3111                 1.0270                 1.8420
 IR Inten    --     55.3782                13.4744                 5.3990

                     19                     20                     21
                      A                      A                      A
 Frequencies --    719.3545               800.6321               884.3172
 Red. masses --      2.4478                 1.7067                 4.9357
 Frc consts  --      0.7463                 0.6446                 2.2741
 IR Inten    --    103.9660                24.8681                16.0837

                     22                     23                     24
                      A                      A                      A
 Frequencies --    899.9728               938.0441               992.6553
 Red. masses --      1.4049                 1.4235                 1.3181
 Frc consts  --      0.6705                 0.7380                 0.7652
 IR Inten    --      1.0542                10.1340                 6.0525

                     25                     26                     27
                      A                      A                      A
 Frequencies --    998.6429              1011.8879              1034.1586
 Red. masses --      1.5286                 4.4052                 1.4350
 Frc consts  --      0.8982                 2.6576                 0.9042
 IR Inten    --    110.4952                24.3876               148.9355

                     28                     29                     30
                      A                      A                      A
 Frequencies --   1111.1105              1122.9059              1147.7783
 Red. masses --      1.9003                 3.7146                 1.6862
 Frc consts  --      1.3823                 2.7596                 1.3088
 IR Inten    --     14.6460                70.7160                64.2100

                     31                     32                     33
                      A                      A                      A
 Frequencies --   1182.9105              1201.3043              1217.3472
 Red. masses --      1.2806                 1.1395                 1.3975
 Frc consts  --      1.0558                 0.9689                 1.2202
 IR Inten    --      0.9427                 1.7132                 2.8986

                     34                     35                     36
                      A                      A                      A
 Frequencies --   1276.3280              1326.9391              1350.7701
 Red. masses --      2.9561                 1.8366                 3.5624
 Frc consts  --      2.8372                 1.9053                 3.8297
 IR Inten    --     50.1640                69.8344                 6.7710

                     37                     38                     39
                      A                      A                      A
 Frequencies --   1386.8086              1418.7897              1477.7251
 Red. masses --      4.0605                 6.2312                 1.7801
 Frc consts  --      4.6011                 7.3902                 2.2903
 IR Inten    --    556.3736               288.2334               139.1253

                     40                     41                     42
                      A                      A                      A
 Frequencies --   1493.9717              1506.5231              1518.5999
 Red. masses --      1.9059                 1.0432                 1.0679
 Frc consts  --      2.5063                 1.3950                 1.4510
 IR Inten    --    130.7257                10.4494                 7.6183

                     43                     44                     45
                      A                      A                      A
 Frequencies --   1537.3659              1649.1459              1680.4399
 Red. masses --      2.6380                 5.6650                 6.6009
 Frc consts  --      3.6735                 9.0776                10.9824
 IR Inten    --     38.9971                82.4083                10.3752

                     46                     47                     48
                      A                      A                      A
 Frequencies --   3039.1177              3102.5624              3175.6468
 Red. masses --      1.0353                 1.1060                 1.0997
 Frc consts  --      5.6338                 6.2726                 6.5342
 IR Inten    --     41.2233                29.5943                17.9332

                     49                     50                     51
                      A                      A                      A
 Frequencies --   3177.2742              3210.4455              3219.6213
 Red. masses --      1.0881                 1.0923                 1.0916
 Frc consts  --      6.4718                 6.6334                 6.6671
 IR Inten    --     13.5116                12.8842                 1.5260

                     52                     53                     54
                      A                      A                      A
 Frequencies --   3239.1554              3908.6878              3947.0760
 Red. masses --      1.0928                 1.0653                 1.0659
 Frc consts  --      6.7552                 9.5890                 9.7844
 IR Inten    --      3.2757               108.2952                55.9631

 - Thermochemistry -
 -------------------
 Temperature   298.150 Kelvin.  Pressure   1.00000 Atm.
 Atom     1 has atomic number  8 and mass  15.99491

 Molecular mass:   152.06447 amu.
 Principal axes and moments of inertia in atomic units:
                           1         2         3
     Eigenvalues --   764.271482852.652503601.73629
           X            0.71736   0.64659  -0.25945
           Y           -0.42449   0.70094   0.57314
           Z            0.55245  -0.30101   0.77730
 This molecule is an asymmetric top.
 Rotational symmetry number  1.
 Warning -- assumption of classical behavior for rotation
           may cause significant error
 Rotational temperatures (Kelvin)      0.11333     0.03036     0.02405
 Rotational constants (GHZ):           2.36139     0.63265     0.50108
 Zero-point vibrational energy     417369.0 (Joules/Mol)
                                   99.75359 (Kcal/Mol)
 Warning -- explicit consideration of  16 degrees of freedom as
           vibrations may cause significant error
 Vibrational temperatures:     30.61   109.79   195.31   209.45   311.68
          (Kelvin)            397.70   418.69   449.96   557.03   613.09
                              676.88   708.50   743.53   767.77   834.07
                              848.54   991.70  1023.88  1034.99  1151.93
                             1272.34  1294.86  1349.64  1428.21  1436.82
                             1455.88  1487.92  1598.64  1615.61  1651.40
                             1701.94  1728.41  1751.49  1836.35  1909.17
                             1943.46  1995.31  2041.32  2126.12  2149.49
                             2167.55  2184.93  2211.93  2372.75  2417.78
                             4372.61  4463.90  4569.05  4571.39  4619.12
                             4632.32  4660.42  5623.73  5678.96

 Zero-point correction=                           0.158967 (Hartree/Particle)
 Thermal correction to Energy=                    0.169353
 Thermal correction to Enthalpy=                  0.170297
 Thermal correction to Gibbs Free Energy=         0.122002
 Sum of electronic and zero-point Energies=           -522.578285
 Sum of electronic and thermal Energies=              -522.567899
 Sum of electronic and thermal Enthalpies=            -522.566955
 Sum of electronic and thermal Free Energies=         -522.615250

                     E (Thermal)             CV                S
                      KCal/Mol        Cal/Mol-Kelvin    Cal/Mol-Kelvin
 Total                  106.271             39.130            101.646
 Electronic               0.000              0.000              0.000
 Translational            0.889              2.981             40.967
 Rotational               0.889              2.981             30.441
 Vibrational            104.493             33.168             30.237
 Vibration     1          0.593              1.985              6.512
 Vibration     2          0.599              1.965              3.984
 Vibration     3          0.614              1.918              2.863
 Vibration     4          0.617              1.907              2.729
 Vibration     5          0.645              1.816              1.987
 Vibration     6          0.678              1.717              1.556
 Vibration     7          0.687              1.690              1.468
 Vibration     8          0.701              1.649              1.348
 Vibration     9          0.756              1.498              1.011
 Vibration    10          0.788              1.413              0.871
 Vibration    11          0.827              1.316              0.736
 Vibration    12          0.848              1.267              0.677
 Vibration    13          0.872              1.213              0.617
 Vibration    14          0.889              1.176              0.579
 Vibration    15          0.936              1.075              0.486
 Vibration    16          0.947              1.054              0.468

 Optimization completed.
    -- Stationary point found.
 Normal termination of Gaussian 16 at Wed Apr 23 16:38:10 2025.
