 Gaussian 16, Revision C.01,
 Gaussian 16:  AS64L-G16RevC.01  3-Jul-2019

 ----------------------------------------------------------------------
 # opt=calcfc freq 6-311+g(d,p) scrf=(smd,solvent=thf) nosymm scf=(qc,f
 ermi,xqc) geom=connectivity int=ultrafine m062x
 ----------------------------------------------------------------------

 ----------------------------------------
 2-6-diMe-phboh2-opt-freq-thf-non-tight-2
 ----------------------------------------
 Symbolic Z-matrix:
 Charge =  0 Multiplicity = 1

 SCF Done:  E(RM062X) =  -486.848025757     A.U. after   14 cycles
 SCF Done:  E(RM062X) =  -486.847627355     A.U. after   13 cycles
 SCF Done:  E(RM062X) =  -486.848028427     A.U. after   13 cycles
 SCF Done:  E(RM062X) =  -486.848029323     A.U. after   10 cycles
 SCF Done:  E(RM062X) =  -486.848026973     A.U. after   11 cycles
 SCF Done:  E(RM062X) =  -486.848028294     A.U. after   11 cycles
 SCF Done:  E(RM062X) =  -486.848029441     A.U. after   10 cycles
 Optimization completed.
    -- Stationary point found.
 Normal termination of Gaussian 16 at Tue May 13 14:39:37 2025.

 ----------------------------------------------------------------------
 #N Geom=AllCheck Guess=TCheck SCRF=Check GenChk RM062X/6-311+G(d,p) Fr
 eq
 ----------------------------------------------------------------------

 Structure from the checkpoint file:  "2-6-diMe-phboh2-opt-freq-thf-non-tight-2.chk"
 ----------------------------------------
 2-6-diMe-phboh2-opt-freq-thf-non-tight-2
 ----------------------------------------
 Charge =  0 Multiplicity = 1

                          Input orientation:
 ---------------------------------------------------------------------
 Center     Atomic      Atomic             Coordinates (Angstroms)
 Number     Number       Type             X           Y           Z
 ---------------------------------------------------------------------
      1          8           0        8.733476    6.492713    4.901951
      2          1           0        9.535240    6.239957    5.375906
      3          6           0        6.246873    6.977243    5.141277
      4          5           0        7.647810    6.549821    5.725023
      5          8           0        7.836874    6.232463    7.043927
      6          1           0        7.034673    6.310218    7.570218
      7          6           0        5.145211    6.106799    5.225610
      8          6           0        3.911115    6.504134    4.705907
      9          1           0        3.066092    5.825160    4.759633
     10          6           0        3.760694    7.755862    4.122165
     11          6           0        4.846785    8.621220    4.044198
     12          1           0        4.728548    9.599941    3.590542
     13          6           0        6.093899    8.241860    4.541428
     14          1           0        2.797249    8.057766    3.726025
     15          6           0        7.262177    9.190818    4.426205
     16          1           0        7.824299    9.250398    5.361927
     17          1           0        7.958451    8.857481    3.652510
     18          1           0        6.921245   10.194926    4.169402
     19          6           0        5.268344    4.746623    5.872913
     20          1           0        6.233931    4.280420    5.663813
     21          1           0        5.160915    4.813771    6.960607
     22          1           0        4.486131    4.076866    5.511969
 ---------------------------------------------------------------------

 SCF Done:  E(RM062X) =  -486.848029441     A.U. after    1 cycles

 Alpha  occ. eigenvalues --  -19.63485 -19.63030 -10.55167 -10.55039 -10.53940
 Alpha  occ. eigenvalues --  -10.53352 -10.53306 -10.52734 -10.52281 -10.52248
 Alpha  occ. eigenvalues --   -7.08315  -1.16548  -1.12815  -0.96202  -0.87819
 Alpha  occ. eigenvalues --   -0.85385  -0.77790  -0.76566  -0.68457  -0.64723
 Alpha  occ. eigenvalues --   -0.64579  -0.61826  -0.56871  -0.54180  -0.51749
 Alpha  occ. eigenvalues --   -0.49362  -0.48490  -0.47454  -0.46832  -0.46345
 Alpha  occ. eigenvalues --   -0.46303  -0.45468  -0.43579  -0.42713  -0.41053
 Alpha  occ. eigenvalues --   -0.40123  -0.38917  -0.36696  -0.29915  -0.29118
 Alpha virt. eigenvalues --    0.00227   0.00728   0.02051   0.02288   0.02340
 Alpha virt. eigenvalues --    0.02889   0.03962   0.04418   0.04811   0.06792
 Alpha virt. eigenvalues --    0.06963   0.07231   0.07363   0.08345   0.09491

 Mulliken charges:
               1
     1  O   -0.269380
     2  H    0.291262
     3  C   -1.435040
     4  B    0.287214
     5  O   -0.253400
     6  H    0.280655
     7  C    1.164215
     8  C   -0.819649
     9  H    0.183955
    10  C   -0.052151
    11  C   -0.759505
    12  H    0.182961
    13  C    1.300579
    14  H    0.186901
    15  C   -0.765084
    16  H    0.193787
    17  H    0.221113
    18  H    0.183052
    19  C   -0.731058
    20  H    0.203669
    21  H    0.216089
    22  H    0.189816
 Sum of Mulliken charges =   0.00000

 Dipole moment (field-independent basis, Debye):
    X=             -0.6085    Y=             -0.2156    Z=              1.5560  Tot=              1.6846
 Quadrupole moment (field-independent basis, Debye-Ang):
   XX=            -67.9426   YY=            -63.8949   ZZ=            -50.6872
   XY=             -3.8610   XZ=              7.8119   YZ=              6.2583

  Exact polarizability:     165.408       6.920     153.364      13.361     -26.659     115.195
 Approx polarizability:     152.394       4.583     140.599      10.646     -20.639     112.548

                      1                      2                      3
                      A                      A                      A
 Frequencies --     48.3095                76.8066               136.2242
 Red. masses --      5.3378                 3.8301                 1.1329
 Frc consts  --      0.0073                 0.0133                 0.0124
 IR Inten    --      2.8083                 0.8106                 1.1441

                      4                      5                      6
                      A                      A                      A
 Frequencies --    168.9886               174.8714               194.8302
 Red. masses --      3.1201                 1.6706                 1.7779
 Frc consts  --      0.0525                 0.0301                 0.0398
 IR Inten    --      1.1747                 3.2382                 3.9073

                      7                      8                      9
                      A                      A                      A
 Frequencies --    219.3825               276.0937               350.7161
 Red. masses --      2.5907                 3.9468                 3.4452
 Frc consts  --      0.0735                 0.1773                 0.2497
 IR Inten    --      0.0926                 4.1163                 2.4667

                     10                     11                     12
                      A                      A                      A
 Frequencies --    353.2293               430.5753               511.0832
 Red. masses --      3.6671                 2.6864                 3.8117
 Frc consts  --      0.2696                 0.2934                 0.5866
 IR Inten    --     17.1687                 1.7840                42.5349

                     13                     14                     15
                      A                      A                      A
 Frequencies --    519.9846               523.9961               534.8501
 Red. masses --      1.3683                 2.5237                 2.8824
 Frc consts  --      0.2180                 0.4083                 0.4858
 IR Inten    --    185.5481                65.8899                 8.2704

                     16                     17                     18
                      A                      A                      A
 Frequencies --    550.0440               583.5520               629.0402
 Red. masses --      4.0024                 1.2724                 4.0228
 Frc consts  --      0.7134                 0.2553                 0.9378
 IR Inten    --      2.5824                 8.8964                19.7272

                     19                     20                     21
                      A                      A                      A
 Frequencies --    677.4827               765.3714               782.1177
 Red. masses --      5.4108                 3.5525                 5.5372
 Frc consts  --      1.4632                 1.2261                 1.9957
 IR Inten    --    102.1413                10.0136                 3.4638

                     22                     23                     24
                      A                      A                      A
 Frequencies --    794.0530               925.1713               934.9880
 Red. masses --      1.2781                 1.3102                 2.6985
 Frc consts  --      0.4748                 0.6607                 1.3899
 IR Inten    --     67.7238                 0.0281                 3.7664

                     25                     26                     27
                      A                      A                      A
 Frequencies --   1004.2971              1011.3980              1015.5866
 Red. masses --      1.6006                 1.3348                 1.5108
 Frc consts  --      0.9512                 0.8045                 0.9181
 IR Inten    --    132.7143                 3.0716                 3.8906

                     28                     29                     30
                      A                      A                      A
 Frequencies --   1038.3327              1052.5205              1057.7620
 Red. masses --      1.4348                 1.6893                 1.6122
 Frc consts  --      0.9114                 1.1026                 1.0628
 IR Inten    --    153.7102                 8.6849                 6.6946

                     31                     32                     33
                      A                      A                      A
 Frequencies --   1061.0625              1093.1536              1142.7302
 Red. masses --      1.5627                 2.4396                 1.6886
 Frc consts  --      1.0366                 1.7176                 1.2992
 IR Inten    --      0.2864                63.1937                29.1103

                     34                     35                     36
                      A                      A                      A
 Frequencies --   1178.7299              1270.0890              1278.2386
 Red. masses --      1.1921                 1.6780                 3.5359
 Frc consts  --      0.9759                 1.5948                 3.4039
 IR Inten    --      3.9391                 4.9479                 5.1946

                     37                     38                     39
                      A                      A                      A
 Frequencies --   1298.6189              1359.5912              1391.7042
 Red. masses --      5.9416                 4.4472                 5.1185
 Frc consts  --      5.9036                 4.8434                 5.8410
 IR Inten    --      1.4659               461.1423               416.9355

                     40                     41                     42
                      A                      A                      A
 Frequencies --   1409.4982              1414.3814              1466.9118
 Red. masses --      1.2538                 1.2860                 1.3609
 Frc consts  --      1.4676                 1.5157                 1.7254
 IR Inten    --      2.1199                21.2155               101.7639

                     43                     44                     45
                      A                      A                      A
 Frequencies --   1478.2723              1485.4215              1493.0864
 Red. masses --      1.2084                 1.1009                 1.0776
 Frc consts  --      1.5558                 1.4312                 1.4154
 IR Inten    --      6.5777                26.6207                15.0587

                     46                     47                     48
                      A                      A                      A
 Frequencies --   1500.9987              1510.2341              1638.8903
 Red. masses --      2.0987                 1.9721                 6.9661
 Frc consts  --      2.7859                 2.6501                11.0240
 IR Inten    --     72.7596                 3.8730                44.0302

                     49                     50                     51
                      A                      A                      A
 Frequencies --   1661.8322              3054.7124              3060.4063
 Red. masses --      6.2318                 1.0409                 1.0372
 Frc consts  --     10.1399                 5.7229                 5.7235
 IR Inten    --     49.6343                22.2992                20.9855

                     52                     53                     54
                      A                      A                      A
 Frequencies --   3118.6667              3123.3217              3145.0591
 Red. masses --      1.0969                 1.1013                 1.1029
 Frc consts  --      6.2856                 6.3296                 6.4273
 IR Inten    --     14.5496                12.9458                18.5906

                     55                     56                     57
                      A                      A                      A
 Frequencies --   3145.6243              3189.5896              3195.9200
 Red. masses --      1.1026                 1.0873                 1.0919
 Frc consts  --      6.4282                 6.5175                 6.5708
 IR Inten    --     16.9592                 0.1219                17.6129

                     58                     59                     60
                      A                      A                      A
 Frequencies --   3213.2967              3838.1113              3873.3706
 Red. masses --      1.0976                 1.0649                 1.0662
 Frc consts  --      6.6769                 9.2426                 9.4249
 IR Inten    --     15.7740               157.8589               134.5509

 - Thermochemistry -
 -------------------
 Temperature   298.150 Kelvin.  Pressure   1.00000 Atm.
 Atom     1 has atomic number  8 and mass  15.99491

 Molecular mass:   150.08521 amu.
 Principal axes and moments of inertia in atomic units:
                           1         2         3
     Eigenvalues --  1204.590871744.140602680.99825
           X            0.89174   0.39976  -0.21210
           Y           -0.26760   0.84377   0.46523
           Z            0.36494  -0.35811   0.85940
 This molecule is an asymmetric top.
 Rotational symmetry number  1.
 Warning -- assumption of classical behavior for rotation
           may cause significant error
 Rotational temperatures (Kelvin)      0.07190     0.04966     0.03231
 Rotational constants (GHZ):           1.49822     1.03475     0.67316
 Zero-point vibrational energy     475115.9 (Joules/Mol)
                                  113.55544 (Kcal/Mol)
 Warning -- explicit consideration of  17 degrees of freedom as
           vibrations may cause significant error
 Vibrational temperatures:     69.51   110.51   196.00   243.14   251.60
          (Kelvin)            280.32   315.64   397.24   504.60   508.22
                              619.50   735.33   748.14   753.91   769.53
                              791.39   839.60   905.05   974.75  1101.20
                             1125.29  1142.47  1331.12  1345.24  1444.96
                             1455.18  1461.20  1493.93  1514.34  1521.88
                             1526.63  1572.80  1644.13  1695.93  1827.37
                             1839.10  1868.42  1956.15  2002.35  2027.95
                             2034.98  2110.56  2126.90  2137.19  2148.22
                             2159.60  2172.89  2358.00  2391.01  4395.05
                             4403.24  4487.07  4493.76  4525.04  4525.85
                             4589.11  4598.22  4623.22  5522.19  5572.92

 Zero-point correction=                           0.180962 (Hartree/Particle)
 Thermal correction to Energy=                    0.192044
 Thermal correction to Enthalpy=                  0.192988
 Thermal correction to Gibbs Free Energy=         0.144270
 Sum of electronic and zero-point Energies=           -486.667067
 Sum of electronic and thermal Energies=              -486.655986
 Sum of electronic and thermal Enthalpies=            -486.655041
 Sum of electronic and thermal Free Energies=         -486.703759

                     E (Thermal)             CV                S
                      KCal/Mol        Cal/Mol-Kelvin    Cal/Mol-Kelvin
 Total                  120.509             41.923            102.535
 Electronic               0.000              0.000              0.000
 Translational            0.889              2.981             40.928
 Rotational               0.889              2.981             30.111
 Vibrational            118.732             35.961             31.496
 Vibration     1          0.595              1.978              4.885
 Vibration     2          0.599              1.965              3.971
 Vibration     3          0.614              1.917              2.856
 Vibration     4          0.625              1.881              2.447
 Vibration     5          0.627              1.873              2.382
 Vibration     6          0.635              1.847              2.181
 Vibration     7          0.647              1.812              1.964
 Vibration     8          0.678              1.718              1.558
 Vibration     9          0.728              1.574              1.163
 Vibration    10          0.729              1.569              1.152
 Vibration    11          0.792              1.404              0.857
 Vibration    12          0.866              1.225              0.631
 Vibration    13          0.875              1.206              0.610
 Vibration    14          0.879              1.197              0.601
 Vibration    15          0.890              1.173              0.576
 Vibration    16          0.905              1.140              0.544
 Vibration    17          0.940              1.067              0.479

 Optimization completed.
    -- Stationary point found.
 Normal termination of Gaussian 16 at Tue May 13 14:42:23 2025.
